/*--------------------------------*- C++ -*----------------------------------*\
| =========                 |                                                 |
| \\      /  F ield         | OpenFOAM: The Open Source CFD Toolbox           |
|  \\    /   O peration     | Version:  2306                                  |
|   \\  /    A nd           | Website:  www.openfoam.com                      |
|    \\/     M anipulation  |                                                 |
\*---------------------------------------------------------------------------*/
FoamFile
{
    version     2.0;
    format      ascii;
    arch        "LSB;label=32;scalar=64";
    class       volScalarField;
    location    "4";
    object      alpha.water;
}
// * * * * * * * * * * * * * * * * * * * * * * * * * * * * * * * * * * * * * //

dimensions      [0 0 0 0 0 0 0];

internalField   nonuniform List<scalar> 
143976
(
0.994283
0.999975
0.999907
0.996709
0.995568
0.996234
0.981395
0.999965
0.999706
0.999819
0.99785
0.996598
0.999253
0.999983
0.999988
0.986753
0.999255
0.999979
0.999979
0.999102
0.995703
0.99999
0.999941
0.999991
0.999862
0.994236
0.994238
0.994758
0.997968
0.999979
0.999984
0.998941
0.999533
0.999986
0.997998
0.99798
0.997028
0.999997
0.999999
0.999498
0.998438
0.999999
0.999998
0.999997
0.997757
0.993867
0.994339
0.999992
0.999997
0.999918
0.997978
0.999962
0.999999
0.999995
0.98731
0.969389
0.969152
0.992492
1
0.999999
0.999995
0.999928
0.999995
0.999995
0.978428
0.969152
0.974141
0.995169
0.999985
0.999789
0.997526
0.999937
0.999993
0.988368
0.974367
0.969152
0.995705
0.997973
0.999992
0.999997
1
0.992719
0.971938
0.987197
0.999788
0.999989
0.999931
0.99881
0.99738
0.999825
0.999991
0.999991
0.998928
0.991571
0.99999
0.99999
0.999367
0.993663
0.996252
0.999694
0.999833
0.999982
0.99998
0.996347
0.999767
0.998881
0.993041
0.996561
0.999932
0.998931
0.999533
0.999923
0.998106
0.997051
0.999991
0.999991
0.999991
0.99999
0.999987
0.999991
0.999992
0.999947
0.99463
0.99463
0.995563
0.999298
0.999846
0.999777
0.999981
0.999967
0.999961
0.999909
0.99462
0.997674
0.99998
0.999971
0.999904
0.999857
0.999979
0.999963
0.999992
0.998974
0.995538
0.997026
0.999816
0.999998
0.999979
0.999926
1
0.999999
0.999999
0.999999
0.99793
0.994463
0.999167
0.999999
0.999999
0.999999
0.999992
0.999999
0.999997
0.999997
0.995528
0.980996
0.995002
0.999999
0.999999
0.999998
0.999999
1
1
0.999999
0.97983
0.99524
1
1
1
1
0.999888
1
1
0.999043
0.981929
0.998371
0.996698
0.985797
0.976837
0.976101
0.979375
0.967192
0.969354
0.988432
0.994012
0.99975
0.99961
0.999056
0.999991
0.999992
0.999939
0.999981
0.999992
0.999992
0.999991
0.999966
0.999981
0.999987
0.999989
0.999988
0.999087
0.99995
0.999889
0.999974
0.999971
0.995031
0.999577
0.999454
0.993215
0.996493
0.899185
0.963374
0.999693
0.998957
0.979017
0.977305
0.998846
0.999281
0.963769
0.89558
0.978841
0.98553
0.999071
0.999743
0.993537
0.998335
0.999991
0.999778
0.999566
0.999999
0.99999
0.999992
0.999992
0.999992
0.99796
0.996007
0.999992
0.999993
0.999821
0.99963
0.999423
0.999713
0.999773
0.998864
0.996925
0.99589
0.999686
0.999798
0.999494
0.999183
0.99893
0.999306
0.999967
0.999986
0.997281
0.996598
0.999699
0.999865
0.9999
0.999849
0.999805
0.99946
0.999798
0.999986
0.997422
0.998241
0.999984
0.999856
0.999708
0.999707
0.999997
0.99922
0.999692
0.99998
0.997598
0.996796
0.99989
0.999945
0.999921
0.999986
1
1
0.999999
0.999998
0.997787
0.994133
0.999415
0.999999
0.999999
0.999998
0.999998
0.999997
0.999997
0.999997
0.993634
0.987182
0.997078
0.999999
1
0.999997
0.999997
1
1
0.99991
0.992176
0.998881
1
1
1
1
0.998147
0.999994
1
0.999996
0.999992
0.999977
0.999923
0.999168
0.997347
0.988036
0.99944
0.999963
0.999959
0.999989
0.99999
0.999728
0.999977
0.999609
0.997457
0.99905
0.99914
0.999629
0.999872
0.999925
0.999979
0.99993
0.999925
0.999639
0.9946
0.996964
0.999918
0.999991
0.999985
0.99999
0.999987
0.999979
0.998472
0.984416
0.96692
0.966904
0.984157
0.987771
0.994895
0.999579
0.999989
0.999994
0.701017
0.271275
0.20214
0.133238
0.0964956
0.0753073
0.211848
0.268368
0.366173
0.47965
0.570514
0.88676
0.878445
0.884315
0.858917
0.825377
0.660918
0.713862
0.774518
0.8194
0.846808
0.999993
0.999992
0.999992
0.999992
0.999991
0.999992
0.999992
0.999992
0.999992
0.999993
0.999993
0.999991
0.999992
0.999992
0.999991
0.99999
0.999991
0.999991
0.999989
0.999989
0.998849
0.998364
0.999952
0.999826
0.998532
0.996484
0.999774
0.99998
0.986095
0.978154
0.95332
0.971491
0.998436
0.999878
0.997253
0.969278
0.998573
0.996479
0.927002
0.820444
0.816912
0.941837
0.999065
0.996749
0.953101
0.979706
0.998319
0.999055
0.981245
0.931639
0.999997
0.995234
0.998223
0.999931
0.999227
0.999521
0.999696
0.998792
0.999992
0.999993
0.99992
0.999988
0.999994
0.999986
0.996036
0.996065
0.999187
0.999995
0.999985
0.999825
0.999814
0.999953
0.999993
0.998601
0.996069
0.996079
0.997178
0.999428
0.999891
0.999776
0.999543
0.99975
0.999965
0.999707
0.996533
0.998246
0.999951
0.999881
0.99912
0.998809
0.998767
0.998891
0.999829
0.999992
0.998521
0.997789
0.999988
0.999935
0.999218
0.998778
0.998687
0.999205
0.999958
0.999986
0.997546
0.997076
0.999984
0.999655
0.99839
0.999651
0.997702
0.998392
0.999762
0.999913
0.996699
0.99708
0.999972
0.999721
0.998389
0.997598
0.999264
0.999581
0.999925
0.999855
0.996234
0.997155
0.999996
0.999924
0.999826
0.999984
0.999988
0.999988
0.999998
0.999456
0.993517
0.992462
0.999998
0.999998
1
1
0.999827
0.999918
0.999998
0.99757
0.988636
0.99659
0.999657
0.999999
0.999402
0.999947
1
0.999945
0.999941
0.999997
0.999108
0.999992
0.999993
0.999996
0.999991
0.992077
0.999875
0.993704
0.998883
0.996081
0.98682
0.84842
0.871145
0.85599
0.839488
0.888529
0.969335
0.951425
0.951169
0.965625
0.956534
0.357185
0.377929
0.405149
0.445747
0.440324
0.643911
0.663063
0.606758
0.568714
0.547943
0.761209
0.780316
0.822947
0.855911
0.837318
0.930235
0.932129
0.920139
0.886928
0.870166
0.841747
0.779889
0.0223242
0.000101705
0.0019602
0.000226198
0.000297412
0.000724398
0.000341934
0.000122059
0.00968195
0.0195489
0.0389405
0.0732747
0.0678104
0.058808
0.0525339
0.0451368
0.776223
0.820977
0.859103
0.871293
0.869033
0.865644
0.871132
0.863791
0.83395
0.79889
0.77614
0.80408
0.827744
0.835114
0.830271
0.781391
0.785248
0.777321
0.757775
0.736621
0.999982
0.999988
0.999989
0.99998
0.999932
0.999413
0.999928
0.99998
0.99998
0.999973
0.999968
0.999973
0.999969
0.999881
0.999168
0.957427
0.96844
0.996603
0.999914
0.999367
0.972293
0.997628
0.991899
0.907329
0.815397
0.809842
0.914126
0.998139
0.991473
0.939872
0.944885
0.991511
0.99899
0.976325
0.894766
0.99677
0.992916
0.998489
0.998119
0.994563
0.999894
0.999562
0.998087
0.999992
0.999992
0.999992
0.999992
0.999619
0.999611
0.999145
0.996474
0.999995
0.999997
0.999986
0.999969
0.999947
0.999976
0.999995
0.99974
0.997944
0.998891
0.999995
0.999994
0.999935
0.999917
0.999817
0.999921
0.999994
0.999995
0.996876
0.997489
0.999995
0.999995
0.999939
0.99989
0.999665
0.999724
0.999985
0.999995
0.996956
0.996961
0.999867
0.999978
0.999851
0.999862
0.99873
0.999029
0.999875
0.999988
0.998205
0.997844
0.999984
0.999953
0.999304
0.998842
0.998579
0.999189
0.999968
0.999984
0.997466
0.997472
0.999982
0.999984
0.999098
0.998205
0.99723
0.999108
0.99998
0.999755
0.996649
0.997016
0.999967
0.999956
0.997948
0.996621
0.998475
0.999702
0.999953
0.999739
0.995483
0.995869
0.999992
0.999931
0.999396
0.998956
0.999944
0.999965
0.999997
0.999384
0.992339
0.992098
0.999997
0.999998
0.999999
0.999966
0.999995
0.994774
0.989667
0.997409
0.99231
0.997974
0.996209
0.982807
0.995355
0.999999
1
0.999873
0.99923
0.998994
0.998372
0.999975
0.999992
0.994758
0.999922
0.989023
0.977796
0.928158
0.969992
0.977147
0.956549
0.749366
0.808642
0.733024
0.664949
0.759786
0.177899
0.148714
0.194193
0.213636
0.202882
0.248881
0.263214
0.272393
0.275905
0.270092
0.00481498
0.0022276
0.00179198
0.0016469
0.00172396
0.00246378
0.00581321
0.00749917
0.00584221
0.00317739
0.0718196
0.0454389
0.0364554
0.0276733
0.0206451
0.000711448
0.000815108
0.00104122
0.000431824
0.000485208
0.000169803
0.000162066
0.000475779
0.000603729
0.00080086
0.00168189
0.00112224
0.000759028
0.000129457
0.000101875
8.62566e-05
8.1951e-05
9.81162e-05
0.000218191
0.00167172
0.000146541
8.21047e-05
7.42783e-05
6.43068e-05
7.18535e-05
5.72056e-05
5.06231e-05
5.70509e-05
6.84008e-05
8.07434e-05
6.84252e-05
5.70509e-05
4.89745e-05
4.82839e-05
5.06068e-05
0.109502
0.106661
0.0973946
0.091272
0.0865215
0.0858158
0.0906895
0.0965711
0.103247
0.103346
0.0716167
0.071809
0.0683622
0.0657867
0.0628683
0.0396646
0.0403767
0.0414926
0.0441449
0.0446276
0.731661
0.73544
0.727938
0.711403
0.695593
0.650541
0.664361
0.678296
0.685442
0.682507
0.631304
0.63301
0.625304
0.612666
0.60011
0.999965
0.999968
0.999965
0.999857
0.999318
0.987002
0.980746
0.995534
0.999965
0.999956
0.988382
0.998235
0.988195
0.90255
0.847801
0.808214
0.889555
0.99376
0.987002
0.937967
0.922262
0.98032
0.998963
0.961146
0.868401
0.986967
0.991967
0.999011
0.99053
0.969019
0.999901
0.999355
0.998083
0.998822
0.999992
0.999985
0.999994
0.998794
0.999943
0.99991
0.995965
0.999997
0.999998
0.999972
0.999747
0.999999
0.999999
0.999997
0.998965
0.993172
0.993138
0.996675
0.99989
0.999999
0.999999
0.999999
0.999997
0.999003
0.995908
0.994326
0.99808
0.999042
0.999978
0.999999
0.999999
0.999999
0.999998
0.999998
0.999289
0.997551
0.999223
0.999995
0.999992
0.999947
0.999934
0.99993
0.999932
0.999983
0.999995
0.999013
0.997433
0.999995
0.999995
0.999957
0.999926
0.999827
0.999929
0.999995
0.999995
0.997253
0.996971
0.999704
0.999993
0.999913
0.999835
0.999639
0.999911
0.999991
0.999677
0.996987
0.997571
0.999842
0.99998
0.999398
0.998858
0.999596
0.999729
0.999994
0.999706
0.997391
0.997741
0.999986
0.999993
0.999409
0.99861
0.999117
0.999934
0.999986
0.999682
0.996649
0.997316
0.999978
0.999977
0.998088
0.996609
0.998909
0.999922
0.999969
0.999393
0.994537
0.993835
0.999983
0.999989
0.999591
0.99902
0.999982
0.999987
0.999995
0.998831
0.987949
0.991767
0.999995
0.999997
0.999996
0.999991
0.999965
0.987297
0.976038
0.994296
0.992992
0.990055
0.976488
0.97643
0.99058
0.999997
0.999999
0.999764
0.996901
0.994561
0.989236
0.999924
0.999927
0.999039
0.999626
0.987936
0.948901
0.865202
0.913207
0.941254
0.946769
0.677855
0.712344
0.585469
0.507855
0.635617
0.116894
0.0677878
0.123621
0.173097
0.1529
0.00347694
0.00341606
0.00311363
0.00312172
0.00491104
0.0051683
0.00295453
0.00251563
0.00254898
0.00282205
0.000840909
0.000753371
0.000622383
0.00106646
0.00265307
0.00274903
0.000648187
0.000405044
0.000418596
0.000435742
0.00203429
0.000572721
0.0005061
0.000688762
0.000855994
0.000317815
0.000458793
0.00038344
0.000448329
0.000125437
0.000619913
0.00134117
0.00117789
0.00039386
0.000241884
0.00035815
0.00102203
0.00102228
0.000106841
0.000101964
0.00125698
0.000745127
0.00104269
0.00103432
0.000419393
0.00019693
0.000402687
0.000639157
0.00146715
0.0016826
0.000807775
0.000131431
9.82103e-05
8.24287e-05
8.7917e-05
0.000256246
0.000255209
0.000242462
8.93473e-05
9.78854e-05
8.93525e-05
0.000139565
0.000138475
5.1376e-05
5.847e-05
4.99456e-05
3.97696e-05
4.49989e-05
8.22819e-05
9.64141e-05
5.71409e-05
4.89745e-05
4.36929e-05
4.74579e-05
4.82321e-05
5.19245e-05
4.1781e-05
3.669e-05
4.36898e-05
5.48298e-05
3.93446e-05
3.8889e-05
3.28341e-05
3.71711e-05
5.51845e-05
4.39502e-05
3.85056e-05
3.58868e-05
3.62074e-05
3.60691e-05
0.0228041
0.0229806
0.0239222
0.0259486
0.0265792
0.0146564
0.014083
0.0124025
0.0118117
0.0120603
0.00501323
0.00445631
0.00463375
0.00596286
0.00671104
0.572381
0.574433
0.566278
0.553902
0.543361
0.99996
0.999965
0.99996
0.99979
0.999205
0.990714
0.984531
0.994323
0.999891
0.999954
0.996166
0.999455
0.983603
0.896788
0.848737
0.808101
0.868066
0.989063
0.984233
0.957509
0.915711
0.966806
0.998519
0.955588
0.852718
0.982108
0.996486
0.999257
0.972712
0.935362
0.998306
0.996585
0.999254
0.99994
0.999992
0.999992
0.999996
0.999529
0.999997
0.999992
0.997117
0.999998
0.999998
0.99999
0.999917
0.999999
0.999999
0.999999
0.999973
0.993138
0.993124
0.996779
0.999998
0.999999
0.999999
0.999998
0.999996
0.999998
0.999869
0.99555
0.995507
0.999612
0.999999
0.999999
0.999999
0.999999
0.999999
0.999998
0.999998
0.996268
0.996362
0.999998
0.999998
0.999987
0.999976
0.999949
0.999973
0.999997
0.999174
0.996727
0.996483
0.999143
0.999996
0.999929
0.999806
0.999793
0.999827
0.99997
0.999995
0.998674
0.998312
0.999994
0.999957
0.999766
0.999676
0.99964
0.999892
0.999994
0.999995
0.997089
0.997051
0.999923
0.999991
0.999895
0.999624
0.999572
0.999871
0.999993
0.999722
0.997011
0.997051
0.999932
0.999996
0.999901
0.999669
0.999959
0.999962
0.999996
0.999678
0.997285
0.998017
0.999992
0.999995
0.999781
0.999238
0.999847
0.999984
0.999989
0.999726
0.996976
0.997994
0.999988
0.999995
0.999667
0.999337
0.999786
0.999979
0.999989
0.998995
0.994944
0.991123
0.999988
0.999993
0.999898
0.999861
0.999992
0.999986
0.999989
0.994659
0.986214
0.988243
0.999988
0.999995
0.999991
0.999986
0.999982
0.997753
0.974269
0.962252
0.986209
0.956345
0.957339
0.977459
0.999984
0.999996
0.999998
0.999996
0.999542
0.993492
0.982948
0.999565
0.999664
0.995694
0.994058
0.974826
0.903848
0.79726
0.858782
0.898658
0.89645
0.517877
0.569481
0.452646
0.3586
0.457331
0.0498926
0.0230814
0.0658038
0.0950413
0.0788611
0.00343883
0.00356168
0.00324728
0.00316989
0.00397013
0.00159601
0.00115875
0.00117
0.00113833
0.000872419
0.000981281
0.0011396
0.00104534
0.00118836
0.00219334
0.000464686
0.000367112
0.000343458
0.000306434
0.000246966
0.000205988
0.000202745
0.000199328
0.000268189
0.000355726
0.000264904
0.000179829
0.000144686
0.000143091
0.000147458
0.000112203
9.07117e-05
8.9212e-05
9.67869e-05
0.000143934
0.000305751
0.000830962
0.000325959
0.000131062
0.000100166
9.88808e-05
9.07117e-05
0.000178165
0.000582001
0.000735057
0.000986943
0.00100145
0.000452295
0.000115856
0.000100166
0.000842216
0.00058131
0.00104329
0.000681574
0.000462974
0.000105429
0.00014972
0.000358891
0.000375203
0.00143375
0.00130588
0.000353875
0.000262451
0.000249009
0.000146371
4.18126e-05
4.58734e-05
7.52994e-05
0.000100959
0.000465349
9.43261e-05
0.000139792
0.000139607
8.06683e-05
6.22205e-05
0.000215399
3.30937e-05
4.81221e-05
9.37422e-05
9.29357e-05
0.000113878
6.45062e-05
2.68673e-05
2.6883e-05
0.000146476
0.000335174
3.24241e-05
3.008e-05
5.56328e-05
0.000117765
0.000102052
4.19834e-05
2.76011e-05
3.05612e-05
0.000338378
0.00015412
3.49615e-05
3.11162e-05
4.34947e-05
5.8505e-05
3.4001e-05
3.42637e-05
3.50547e-05
4.6511e-05
7.93716e-05
3.86476e-05
3.8171e-05
3.61751e-05
3.5062e-05
3.47428e-05
3.42007e-05
3.45117e-05
3.51381e-05
3.6804e-05
3.47928e-05
3.84005e-05
5.31551e-05
6.39908e-05
3.71571e-05
3.36365e-05
0.000537189
0.000488436
0.000441716
0.00143899
0.00168277
0.506465
0.508424
0.503324
0.491448
0.481611
0.999954
0.99996
0.999937
0.999352
0.998591
0.96591
0.955849
0.980869
0.99972
0.999944
0.996129
0.998757
0.955724
0.848569
0.799794
0.802855
0.853339
0.970726
0.976823
0.973183
0.905073
0.943404
0.996239
0.96862
0.87664
0.993881
0.999378
0.998654
0.948347
0.901091
0.989345
0.98885
0.999757
0.999997
0.999997
0.999998
0.999997
0.999998
0.999997
0.999997
0.999521
0.999998
0.999998
0.999997
0.999999
0.999999
0.999999
0.999999
0.999997
0.994296
0.991702
0.995738
0.999998
0.999999
0.999998
0.999993
0.999997
0.999998
0.99998
0.996458
0.997207
0.99995
0.999998
0.999981
0.999993
0.999998
0.999998
0.999998
0.999998
0.996603
0.9967
0.999998
0.999998
0.999996
0.999987
0.999935
0.999978
0.999998
0.999998
0.996685
0.996422
0.999997
0.999997
0.999951
0.999883
0.999819
0.999925
0.999996
0.999946
0.996453
0.996476
0.999021
0.999995
0.999894
0.999742
0.999725
0.999875
0.999994
0.99894
0.996478
0.998121
0.999994
0.999943
0.999762
0.999695
0.999857
0.999756
0.999899
0.999997
0.99798
0.997062
0.999911
0.999987
0.999929
0.999863
0.999946
0.999925
0.999978
0.999998
0.997078
0.997313
0.999998
0.999998
0.99994
0.999835
0.999938
0.999987
0.999997
0.999873
0.997744
0.998546
0.999994
0.999996
0.999854
0.999591
0.99993
0.99999
0.999995
0.999731
0.997493
0.998279
0.999995
0.999995
0.999993
0.999993
0.999996
0.99998
0.999995
0.999207
0.996877
0.998508
0.999994
0.999997
0.999993
0.999997
0.999996
0.999994
0.999547
0.991236
0.988058
0.963431
0.994335
0.999988
0.999986
0.999963
0.999986
0.999986
0.982384
0.956755
0.956354
0.95638
0.971874
0.998065
0.999994
0.999997
0.999998
0.999997
0.999994
0.999626
0.992757
0.998774
0.998997
0.974618
0.962546
0.946698
0.79701
0.701149
0.778705
0.818246
0.826964
0.316796
0.351314
0.27788
0.188666
0.249827
0.0200434
0.0111337
0.017084
0.0207888
0.0155585
0.00274644
0.00339157
0.00329896
0.0026079
0.00313558
0.00125727
0.000856667
0.00086531
0.000954109
0.000749768
0.000353728
0.000382088
0.0002764
0.000292606
0.000371578
0.000577058
0.000468286
0.000408251
0.000336252
0.000235541
8.22798e-05
0.000105424
0.000166146
0.000256524
0.000395971
0.000253471
0.000156436
0.000125503
9.36342e-05
7.47689e-05
6.46921e-05
6.79942e-05
8.09097e-05
0.000124382
0.000198305
0.000138721
5.92774e-05
4.28827e-05
4.35403e-05
4.49164e-05
0.000129292
8.58626e-05
6.49138e-05
5.61515e-05
6.9716e-05
5.31661e-05
4.53714e-05
6.62473e-05
6.8173e-05
9.76435e-05
0.000101498
0.000242594
0.000149289
5.21239e-05
0.000255605
0.000931268
0.000362703
0.000161545
0.000166894
0.000230118
0.000752182
0.000255666
0.000137478
0.000449485
0.00087277
0.000122756
0.000171891
0.000133815
0.000121964
0.000175057
0.000517232
5.28507e-05
4.45992e-05
3.82746e-05
3.19654e-05
2.12318e-05
2.19219e-05
4.2091e-05
0.000412979
0.000536979
0.000188919
0.000103967
5.05669e-05
2.30941e-05
2.19078e-05
4.2458e-05
2.35735e-05
8.86459e-05
0.000165965
0.000201008
0.000152253
8.30822e-05
2.58445e-05
2.49231e-05
2.58456e-05
3.77983e-05
2.58456e-05
2.60517e-05
3.63109e-05
5.27261e-05
8.99988e-05
4.50183e-05
2.68402e-05
3.04814e-05
6.51056e-05
5.19391e-05
3.43569e-05
3.2386e-05
3.42899e-05
3.73239e-05
3.35896e-05
3.3718e-05
4.0291e-05
4.16016e-05
4.60284e-05
5.40387e-05
9.6822e-05
4.70535e-05
3.32913e-05
3.33252e-05
3.37043e-05
3.38343e-05
3.44525e-05
9.92297e-05
0.000106784
4.32556e-05
5.70575e-05
3.39969e-05
3.33378e-05
3.33908e-05
3.49105e-05
6.75202e-05
0.000131684
8.41503e-05
3.77577e-05
7.74106e-05
0.000279711
0.000714572
0.000255529
5.45883e-05
6.76137e-05
7.75284e-05
0.000101317
0.000218023
7.80339e-05
0.436388
0.439072
0.439263
0.428499
0.419647
0.999943
0.999937
0.999789
0.995134
0.994416
0.899702
0.901373
0.939678
0.996803
0.999471
0.995909
0.985484
0.886831
0.795494
0.793913
0.800668
0.880642
0.948706
0.959836
0.971422
0.879545
0.910601
0.997127
0.995675
0.957288
0.999984
0.999991
0.996624
0.932233
0.880113
0.953782
0.986586
0.998468
0.999996
0.999998
0.999998
0.999892
0.999195
0.999809
0.999988
0.999988
0.999997
0.999917
0.999672
0.999998
0.999999
0.999998
0.999988
0.99941
0.999525
0.998554
0.99716
0.999989
0.999998
0.999999
0.999998
0.999997
0.999089
0.993238
0.990133
0.990254
0.991083
0.994938
0.999996
0.999998
0.999999
0.999998
0.999997
0.998708
0.996398
0.999365
0.999995
0.999995
0.999993
0.999994
0.999994
0.999994
0.999995
0.999997
0.999787
0.997696
0.999998
0.999901
0.99997
0.999998
0.999998
0.999983
0.999755
0.999992
0.998656
0.999685
0.999996
0.999753
0.99999
0.999997
0.999895
0.999952
0.999997
0.999997
0.99707
0.998086
0.999996
0.999995
0.999928
0.999908
0.999762
0.999855
0.99999
0.999978
0.996476
0.996737
0.999994
0.999933
0.999788
0.99979
0.999795
0.999884
0.999865
0.999472
0.996478
0.996744
0.999998
0.999846
0.999888
1
0.99996
0.999761
0.999872
0.999998
0.998335
0.998895
0.999998
0.999974
0.999932
0.999931
0.999962
0.999962
0.999989
0.999998
0.997542
0.997774
0.999998
0.999997
0.999974
0.999969
0.999894
0.99998
0.999997
0.999967
0.998288
0.999089
0.999994
0.999996
0.999843
0.999746
0.999907
0.999988
0.999995
0.999809
0.997955
0.998249
0.999995
0.999995
0.999996
0.999995
0.999997
0.999997
0.999997
0.999882
0.997936
0.999865
0.999997
0.999997
0.999997
0.999997
0.999997
0.999997
0.99701
0.992643
0.999498
0.960607
0.990312
0.999978
0.999987
0.999965
0.999995
0.999986
0.992817
0.95648
0.956412
0.974823
0.989163
0.999983
0.999997
0.999998
0.999998
0.999998
0.999997
0.999983
0.999454
0.998809
0.983136
0.939066
0.914623
0.900863
0.621897
0.563348
0.63991
0.683712
0.716428
0.135872
0.139439
0.0979623
0.0656809
0.107672
0.0102491
0.00657252
0.00566116
0.00577791
0.00462999
0.00133379
0.00177287
0.00166004
0.00154897
0.00194532
0.000678461
0.000535252
0.000510065
0.000591661
0.000491903
0.000281612
0.00027809
0.000193782
0.000213314
0.000293703
0.000172256
0.000103732
8.4048e-05
0.000179881
0.000224822
0.000251553
0.000201559
0.000103737
0.000122482
0.000150281
7.09255e-05
7.78739e-05
6.83958e-05
9.68421e-05
0.000289784
5.44087e-05
5.01679e-05
0.000127657
0.000250644
0.000324364
0.000208576
9.11091e-05
8.45909e-05
4.91774e-05
4.59061e-05
3.98936e-05
3.69025e-05
3.42142e-05
4.1145e-05
6.21194e-05
5.00134e-05
3.8869e-05
3.21843e-05
3.74597e-05
3.87746e-05
3.89996e-05
3.47478e-05
2.38302e-05
2.65406e-05
2.45221e-05
4.48104e-05
3.60217e-05
3.29574e-05
4.44965e-05
8.39787e-05
0.000110641
0.000360009
9.4286e-05
4.55027e-05
9.75665e-05
3.34245e-05
0.000223437
0.000370187
0.000373435
0.000378032
0.0005043
0.000351787
9.00081e-05
2.8548e-05
2.39504e-05
2.19332e-05
2.39389e-05
9.7773e-05
0.000346966
0.000525868
0.00134309
0.0014276
0.00142365
0.00111983
0.000105711
1.82089e-05
2.57277e-05
1.95611e-05
5.94489e-05
0.000294756
0.00038139
5.6713e-05
1.73395e-05
1.62315e-05
1.60334e-05
1.60326e-05
1.62326e-05
5.90611e-05
0.000260451
0.000348337
0.000263256
0.000227157
0.000170511
0.000150654
0.000128134
0.000318181
0.000155256
0.000268807
0.000498933
0.000659127
0.000415723
0.000305939
0.000117581
0.000233714
0.00044366
0.000250782
9.64237e-05
3.40222e-05
3.38231e-05
3.47896e-05
3.73841e-05
3.33228e-05
5.6501e-05
0.000195832
0.000112509
3.1815e-05
9.07753e-05
3.32759e-05
3.31333e-05
3.30996e-05
3.31715e-05
3.30565e-05
3.2665e-05
3.18042e-05
3.1425e-05
3.14031e-05
4.95278e-05
3.31828e-05
3.30985e-05
3.32023e-05
3.3033e-05
3.28912e-05
3.24554e-05
3.1567e-05
3.10983e-05
0.00012455
0.000480314
0.000207361
3.87894e-05
4.9417e-05
0.000396523
0.0004487
0.00108124
0.000540797
0.000131697
0.000966035
0.00107436
0.000967088
0.000642686
0.000364802
7.59915e-05
0.000101317
0.000146746
0.000152202
0.000114104
0.381147
0.380421
0.371723
0.364157
0.354504
0.999915
0.99986
0.998388
0.955978
0.953009
0.876841
0.876602
0.89788
0.982501
0.999227
0.990044
0.954924
0.842885
0.793912
0.791049
0.824542
0.914561
0.9619
0.935143
0.922687
0.87677
0.900388
0.999949
0.999984
0.986696
0.999986
0.999991
0.999645
0.939366
0.876801
0.908522
0.992552
0.997822
0.999994
0.999997
0.999998
0.99999
0.997394
0.999197
0.978997
0.992122
0.999158
0.998238
0.999998
0.999998
0.999999
0.999626
0.999983
0.999967
0.992682
0.99323
0.999961
0.999976
0.999989
0.999868
0.999996
0.999984
0.999851
0.992419
0.988766
0.978466
0.97849
0.984663
0.997434
0.999998
0.999998
0.999998
0.999997
0.997327
0.991341
0.994297
0.998856
0.999983
0.999998
0.999998
0.999998
0.999861
0.999277
0.995402
0.988982
0.981069
0.99059
0.997626
0.99885
0.999921
0.999997
0.999996
0.999973
0.999992
0.999968
0.99872
0.999256
0.999832
0.999993
0.999996
0.999995
0.999994
0.999881
0.998737
0.996068
0.999991
0.999995
0.999875
0.999995
0.999996
0.999998
0.999995
0.999992
0.999994
0.999965
0.99904
0.999995
0.999976
0.999914
0.999999
0.999999
0.99996
0.999982
0.999994
0.999756
0.997971
0.999995
0.999922
0.999783
0.999977
0.999986
0.999955
0.999981
0.999998
0.999214
0.998503
0.999998
0.999987
0.999979
0.999989
0.998922
0.999568
0.999989
0.999998
0.998946
0.999624
0.999998
0.999949
0.999903
0.999968
0.999978
0.999943
0.999976
0.999998
0.998604
0.998846
0.999998
0.999993
0.999981
0.999989
0.999944
0.999967
0.999996
0.999987
0.999116
0.999433
0.999995
0.999979
0.999937
0.999999
0.999955
0.999974
0.999993
0.999896
0.998455
0.998645
0.999993
0.999995
0.999958
0.999953
0.999985
0.99999
0.999994
0.999908
0.998437
0.999744
0.999991
0.999997
0.999997
0.999997
0.999996
0.999635
0.997154
0.99873
0.999968
0.97346
0.995027
0.999942
0.999977
0.999974
0.999996
0.999983
0.996679
0.962053
0.95648
0.979986
0.989767
0.999988
0.999997
0.999998
0.999998
0.999998
0.999997
0.999988
0.999645
0.984534
0.949899
0.892446
0.850792
0.834829
0.428243
0.417101
0.486604
0.520212
0.543717
0.0396189
0.0378413
0.0266411
0.0184679
0.0335845
0.00587254
0.00367532
0.00297854
0.00317458
0.00290763
0.000889336
0.000900623
0.000771333
0.00101219
0.00109772
0.000378159
0.000293963
0.000273242
0.000301967
0.000318488
0.000192722
0.000134832
0.000119307
0.000134014
0.000190225
0.000116997
7.5376e-05
6.51981e-05
7.85122e-05
0.000156463
0.000156171
6.85765e-05
5.74909e-05
5.75202e-05
6.61918e-05
0.000166003
6.40067e-05
6.46935e-05
0.000154893
0.000311478
0.000280448
0.000165148
5.47142e-05
5.85539e-05
6.68271e-05
5.17857e-05
7.14198e-05
5.36072e-05
5.27841e-05
0.000120892
4.81851e-05
3.66022e-05
3.32e-05
0.000126937
7.80759e-05
1.80145e-05
1.80464e-05
2.09718e-05
2.88274e-05
5.56377e-05
3.90757e-05
3.2413e-05
2.06269e-05
2.46389e-05
2.14597e-05
2.2352e-05
1.72463e-05
1.55192e-05
4.82391e-05
7.07147e-05
7.15385e-05
5.36791e-05
1.86569e-05
2.20929e-05
2.62579e-05
2.62137e-05
0.000100976
0.000133991
4.96813e-05
3.17489e-05
8.08728e-06
0.000104463
0.000139251
0.000139251
4.87367e-05
0.000138928
0.000115751
0.000100226
7.19938e-06
5.6048e-06
0.000452549
0.00108786
0.000889313
0.000358384
0.000178394
0.000388461
0.000995132
0.00026495
5.71762e-06
5.15055e-06
0.00138447
0.00142362
0.0014234
0.00134874
0.000685386
1.60866e-05
0.000216274
0.00102281
0.00137219
0.00139589
8.90326e-05
1.86843e-05
1.62319e-05
1.60436e-05
1.61875e-05
0.00119186
0.0016071
0.00154218
0.000611557
0.000504574
0.00161305
0.00162118
0.00162285
0.00162066
0.00161573
0.00108963
0.00161497
0.00159883
0.000980004
0.00158784
0.0011413
0.000770017
0.000628016
0.000747843
0.000433481
4.52367e-05
8.30818e-05
0.000308573
0.000534236
4.07282e-05
4.25219e-05
0.000108883
0.000239579
0.000309901
0.000193791
3.20863e-05
0.000110529
0.000176756
8.641e-05
3.34515e-05
3.3145e-05
3.51e-05
3.19922e-05
3.15996e-05
3.13427e-05
3.12427e-05
3.13261e-05
3.15233e-05
3.20396e-05
3.26899e-05
3.30878e-05
3.26569e-05
3.1969e-05
3.13753e-05
3.11682e-05
0.000135956
7.15209e-05
3.27565e-05
3.30196e-05
3.28849e-05
0.000116109
3.35095e-05
3.36337e-05
3.45993e-05
0.000252189
0.000279475
0.000145146
0.000231454
0.000414796
0.000861916
0.00117566
0.00117257
0.00110881
0.000163142
0.000312518
0.00139008
0.00123642
0.000725552
0.000763233
0.000693078
0.000113212
0.000152509
0.00018456
0.000176556
0.00014756
0.315673
0.31416
0.300696
0.288085
0.274946
0.999848
0.99959
0.983207
0.926107
0.918293
0.868527
0.862729
0.890321
0.962266
0.998565
0.984347
0.925103
0.843508
0.793509
0.788519
0.827232
0.926437
0.982451
0.927043
0.925073
0.876771
0.934173
0.999938
0.999949
0.980359
0.999944
0.999984
0.999958
0.967769
0.87677
0.892465
0.998989
0.999818
0.999612
0.999977
0.989402
0.99273
0.998767
0.999899
0.944341
0.962224
0.99991
0.998702
0.986477
0.979998
0.983718
0.99003
0.999191
0.999947
0.966292
0.967181
0.99991
0.99548
0.998191
0.999853
0.999883
0.989277
0.980619
0.9966
0.995603
0.987146
0.983329
0.99019
0.998257
0.999661
0.999097
0.994251
0.979617
0.978594
0.983532
0.978426
0.978466
0.978602
0.981911
0.99568
0.979582
0.978671
0.978531
0.978425
0.978426
0.978426
0.980253
0.978857
0.978741
0.978518
0.978266
0.979551
0.987364
0.993798
0.979607
0.976588
0.985407
0.997258
0.998526
0.999979
0.986225
0.989833
0.991298
0.98127
0.976444
0.976346
0.975549
0.94494
0.917518
0.947583
0.987108
0.97567
0.996606
0.999168
0.997595
0.992029
0.985488
0.961965
0.917649
0.961136
0.999955
0.999992
0.999989
0.998538
0.999726
0.961624
0.96194
0.996636
0.996922
0.997515
0.999997
0.999975
0.99998
0.999611
0.999753
0.992943
0.981706
0.985521
0.98626
0.985458
0.994743
0.995793
0.999982
0.999993
0.998357
0.980458
0.99511
0.99596
0.978888
0.961419
0.962351
0.987372
0.999965
0.999993
0.996975
0.999992
0.999998
0.999941
0.997364
0.992759
0.999976
0.999769
0.999958
0.999998
0.999911
0.99985
0.999998
0.999997
0.999988
0.999257
0.99998
0.999994
0.999995
0.999995
0.999692
0.999663
0.999994
0.999992
0.99998
0.999997
0.999972
0.999973
0.999991
0.999958
0.999025
0.999217
0.999991
0.999993
0.999972
0.999952
0.999981
0.999992
0.999994
0.999918
0.998895
0.999672
0.99997
0.999996
0.999997
0.999996
0.999996
0.99948
0.998834
0.999988
0.999985
0.999328
0.998189
0.999909
0.999964
0.999971
0.999996
0.999987
0.998467
0.971579
0.957468
0.970387
0.984268
0.999988
0.999997
0.999998
0.999998
0.999998
0.999997
0.999988
0.999387
0.937148
0.907958
0.84007
0.776819
0.752523
0.267008
0.299152
0.359676
0.376565
0.386422
0.0117378
0.0109958
0.00914093
0.008476
0.010545
0.00353815
0.00228993
0.00199803
0.00201149
0.00201636
0.000582822
0.000904095
0.000716412
0.000626625
0.000667186
0.000265979
0.000327589
0.000452861
0.000379716
0.000288051
0.000193157
0.00015677
0.000402721
0.00024733
0.000149398
0.000118251
0.000327502
0.000354684
0.000109097
0.000157016
0.000286729
0.000140091
0.000121514
6.11198e-05
6.49949e-05
6.21525e-05
5.85411e-05
5.30292e-05
0.000213435
0.000331539
0.000201605
9.37598e-05
4.79039e-05
5.75205e-05
5.85538e-05
0.000215652
0.00016434
4.27857e-05
1.20759e-05
9.60239e-05
4.19325e-05
1.72633e-05
5.29239e-05
9.45439e-05
0.000106053
5.72968e-05
9.51391e-05
6.76152e-05
1.80245e-05
2.9645e-05
3.38667e-05
1.3248e-05
1.74877e-05
5.60998e-05
8.57244e-05
1.26561e-05
1.1638e-05
1.37349e-05
5.52979e-05
6.99508e-05
7.3515e-05
2.38167e-05
1.16397e-05
8.53724e-06
9.56325e-06
1.22711e-05
1.1913e-05
1.33612e-05
3.46605e-05
7.38498e-05
7.30733e-05
6.288e-05
1.55724e-05
1.67772e-05
1.8545e-05
1.58848e-05
2.21143e-05
0.000119866
7.42531e-05
3.18203e-05
1.53973e-05
2.13443e-05
7.01955e-05
4.00717e-05
1.25616e-05
7.16672e-05
1.31004e-05
1.09034e-05
5.02593e-06
4.60446e-06
4.36459e-06
4.47298e-06
4.79347e-06
1.5048e-05
2.42393e-05
2.04022e-05
6.36197e-05
6.87326e-05
5.02406e-06
0.000100237
0.000119519
4.46918e-06
4.59308e-06
4.87586e-06
5.74518e-06
1.80388e-05
4.56025e-05