/*--------------------------------*- C++ -*----------------------------------*\
| =========                 |                                                 |
| \\      /  F ield         | OpenFOAM: The Open Source CFD Toolbox           |
|  \\    /   O peration     | Version:  2306                                  |
|   \\  /    A nd           | Website:  www.openfoam.com                      |
|    \\/     M anipulation  |                                                 |
\*---------------------------------------------------------------------------*/
FoamFile
{
    version     2.0;
    format      ascii;
    arch        "LSB;label=32;scalar=64";
    class       volScalarField;
    location    "4";
    object      epsilon;
}
// * * * * * * * * * * * * * * * * * * * * * * * * * * * * * * * * * * * * * //

dimensions      [0 2 -3 0 0 0 0];

internalField   nonuniform List<scalar> 
143976
(
0.0346278
0.035542
0.036708
0.0396085
0.0473717
0.0842845
0.10836
0.0485815
0.0384114
0.0352307
0.0342962
0.0342514
0.0349983
0.0377553
0.0468044
0.101245
0.111309
0.0507822
0.0406968
0.0376181
0.0367568
0.0378396
0.0391831
0.0427624
0.0535979
0.116878
0.0942733
0.0528714
0.0440559
0.0406138
0.0390418
0.0376441
0.0389612
0.0426169
0.0535301
0.114349
0.149794
0.0625153
0.046986
0.0417533
0.0398092
0.0376836
0.0390069
0.0425155
0.0523754
0.103819
0.132015
0.0552761
0.0421156
0.0379853
0.0367492
0.0354193
0.0361608
0.0389014
0.0474544
0.0941142
0.124594
0.0540832
0.0416529
0.0375879
0.0362433
0.0328787
0.0340207
0.0375362
0.0485009
0.111918
0.0848693
0.0408138
0.0336339
0.0316635
0.0314254
0.0328858
0.0338537
0.0366079
0.0442187
0.081476
0.0327191
0.0334803
0.0327687
0.0332393
0.0356626
0.043893
0.0909918
0.0691351
0.0363157
0.0311093
0.0301741
0.0307255
0.0321468
0.0317007
0.0330382
0.0394481
0.0799045
0.0901192
0.042861
0.0351887
0.033166
0.0330126
0.035981
0.036436
0.0391579
0.0486225
0.104715
0.116598
0.0555742
0.0441991
0.0405669
0.0396837
0.0401334
0.0412746
0.0451807
0.0574852
0.128331
0.133112
0.05882
0.046242
0.0420987
0.0405273
0.0414123
0.0434782
0.0481416
0.0613951
0.136171
0.110329
0.0584921
0.0481237
0.0441054
0.0421863
0.0412773
0.0432749
0.0479722
0.0608388
0.128858
0.173716
0.0718626
0.0530215
0.0462197
0.0432781
0.0412726
0.0433912
0.048081
0.0604745
0.125081
0.142872
0.065606
0.0510934
0.0456353
0.0431312
0.0416701
0.0440596
0.0502342
0.0684856
0.171699
0.117154
0.0562182
0.0448427
0.0408464
0.0393436
0.0386093
0.0400768
0.0447724
0.0596636
0.146554
0.103617
0.0503992
0.0408934
0.0379282
0.0371956
0.0385056
0.0400583
0.0446597
0.058647
0.138092
0.122268
0.0559421
0.0447028
0.0412191
0.0403085
0.0376347
0.0385116
0.0417154
0.0519079
0.111341
0.10447
0.0513403
0.0429473
0.0405728
0.0402075
0.0347616
0.0345965
0.036007
0.0421269
0.0817078
0.0676342
0.0363726
0.031695
0.0312923
0.0323931
0.0329219
0.0320327
0.0329865
0.0389496
0.0747982
0.0856282
0.0445429
0.0368597
0.0350316
0.0353923
0.0352945
0.0353586
0.0376618
0.0461688
0.0934595
0.107449
0.053542
0.0430625
0.0398317
0.0392666
0.0437921
0.0450148
0.0494257
0.062585
0.130313
0.131619
0.0638865
0.0504942
0.0458995
0.044536
0.0446649
0.0457588
0.0501597
0.0640159
0.139482
0.154346
0.0662596
0.0511575
0.046311
0.0447063
0.0442118
0.0464699
0.0516747
0.0668673
0.155853
0.153436
0.0687567
0.0531335
0.0473772
0.0446539
0.0457909
0.048385
0.0536235
0.0668914
0.132807
0.133972
0.0660287
0.0521809
0.046862
0.044462
0.0465969
0.0502372
0.0580717
0.0787156
0.18657
0.14995
0.0683353
0.0531302
0.0473073
0.044483
0.0469059
0.0504425
0.0575626
0.0761738
0.176304
0.199855
0.0790558
0.0569132
0.0489362
0.0454083
0.0460109
0.049633
0.0578462
0.0807859
0.206855
0.14768
0.0672735
0.0520016
0.0462305
0.043575
0.0419105
0.0443687
0.0507063
0.069483
0.176231
0.120669
0.0572294
0.0452576
0.0410243
0.0394137
0.0384711
0.039901
0.0445715
0.0595176
0.14743
0.104211
0.0504849
0.0407064
0.037655
0.0369344
0.0382393
0.0397175
0.0442952
0.0584499
0.13956
0.120938
0.0548409
0.0438718
0.0406623
0.0400248
0.0424432
0.0422451
0.044208
0.0525961
0.109089
0.112063
0.0540355
0.0451761
0.0428152
0.0426004
0.0441631
0.0438002
0.0454284
0.0522374
0.0982061
0.183337
0.0765236
0.0586007
0.0527969
0.0506387
0.0463623
0.0479721
0.0525185
0.066357
0.146721
0.122586
0.0590286
0.0479802
0.0443375
0.0430912
0.0401744
0.0395654
0.0404968
0.0450673
0.0716864
0.0769256
0.0451031
0.0401395
0.0394154
0.0402007
0.0422509
0.0421722
0.0438304
0.0502048
0.0930611
0.0453675
0.0536913
0.0639011
0.0705013
0.0799247
0.0963405
0.179835
0.109787
0.0775954
0.0727947
0.066923
0.0603872
0.043443
0.0425065
0.0430104
0.04695
0.0741478
0.0679321
0.0505838
0.0480852
0.0471221
0.0471647
0.0359493
0.034424
0.0343765
0.0381759
0.064314
0.0748679
0.0412
0.0355049
0.0348036
0.0359564
0.0372793
0.0367146
0.0383552
0.0458633
0.0859524
0.0970255
0.049876
0.0409662
0.0387287
0.0389289
0.0387611
0.0388422
0.041465
0.0510195
0.100327
0.121331
0.058155
0.0461716
0.0426242
0.0420986
0.0456499
0.0467504
0.0511801
0.065263
0.143426
0.159497
0.0730943
0.0572308
0.0514611
0.0490642
0.0509418
0.0535067
0.0594376
0.0753552
0.156544
0.154501
0.0729638
0.0573262
0.0522216
0.0508905
0.0502237
0.0515866
0.056699
0.0734297
0.170251
0.177305
0.0735607
0.0561798
0.0504921
0.0482898
0.0461754
0.048662
0.0541936
0.0702163
0.163855
0.156007
0.0722276
0.0561402
0.0500103
0.0470721
0.0497787
0.0534616
0.060612
0.0782215
0.165791
0.140797
0.0708553
0.0561357
0.0503316
0.0475712
0.0499338
0.0539022
0.062016
0.0826836
0.188746
0.184055
0.0791419
0.0594957
0.0518966
0.0480802
0.0510022
0.0557672
0.0650458
0.0889475
0.216457
0.218743
0.0878046
0.0630185
0.053662
0.049221
0.0503041
0.0549323
0.0647195
0.0908761
0.230172
0.181494
0.078429
0.0590258
0.0515452
0.0478114
0.0472155
0.0508972
0.0582498
0.0770534
0.174849
0.204436
0.0792514
0.0566873
0.0486751
0.0451685
0.0426834
0.0454088
0.0512794
0.0666004
0.145167
0.172267
0.0674656
0.0492174
0.0430995
0.0407473
0.0381605
0.0398409
0.0441548
0.0561637
0.118337
0.141822
0.0568868
0.0426438
0.0382554
0.0369574
0.0354199
0.0361405
0.0391833
0.0487786
0.100085
0.132314
0.0549584
0.041752
0.037644
0.0364526
0.0381534
0.0382886
0.0406736
0.0499727
0.108885
0.103208
0.0494735
0.0420847
0.0408007
0.0414938
0.0480738
0.0462171
0.0472041
0.0550318
0.103216
0.257561
0.0973468
0.0714971
0.063105
0.0596642
0.0555808
0.0582406
0.0652807
0.0873313
0.221951
0.24747
0.0993492
0.0756292
0.0678446
0.0640883
0.0618844
0.064638
0.0705697
0.089215
0.21052
0.161419
0.072043
0.0590972
0.0556288
0.0545267
0.046528
0.0469545
0.0495882
0.0594474
0.128239
0.0483898
0.0497347
0.0804483
0.0855683
0.0888362
0.0935419
0.127159
0.319634
0.433941
0.13909
0.128359
0.134028
0.13181
0.0839291
0.0865929
0.0850295
0.0812373
0.100317
0.0717626
0.0464101
0.0421426
0.0415982
0.0424409
0.0422937
0.0421167
0.0437139
0.0502532
0.084353
0.0933642
0.0527087
0.0447456
0.042601
0.0424919
0.042364
0.0426989
0.0453073
0.0545754
0.102351
0.109481
0.0539037
0.0434378
0.0405861
0.0404218
0.0423261
0.0428617
0.0462147
0.0578632
0.120602
0.126471
0.0607734
0.0486424
0.0450021
0.0441618
0.0485438
0.0501328
0.0552284
0.0707301
0.158607
0.183816
0.0816577
0.0632137
0.0561358
0.0527992
0.054999
0.0587632
0.066096
0.0847344
0.182693
0.174837
0.0812964
0.0634109
0.0572702
0.0551251
0.0542248
0.0558193
0.0615884
0.0799735
0.183613
0.195368
0.0804976
0.0608449
0.0544444
0.0520957
0.0488822
0.0514846
0.057425
0.0748317
0.178426
0.159682
0.0718332
0.0559501
0.0501725
0.0474484
0.0481414
0.0507943
0.0560995
0.0694166
0.134165
0.199638
0.0844601
0.0626088
0.0540393
0.0496895
0.0522254
0.0574365
0.0675064
0.092764
0.224045
0.262403
0.104623
0.0741301
0.0619258
0.0555228
0.0531451
0.0581649
0.0681827
0.0937289
0.225792
0.243587
0.0989591
0.0711004
0.0602643
0.0548497
0.0523256
0.0572811
0.0668849
0.0915391
0.222399
0.213788
0.0897831
0.0661245
0.0568189
0.0519946
0.0498009
0.0543756
0.06412
0.0904018
0.231469
0.22788
0.087712
0.0619317
0.0524948
0.0481149
0.0456781
0.0492521
0.0564259
0.0745334
0.165632
0.196856
0.0756452
0.0541117
0.0465688
0.0433277
0.0409517
0.0436561
0.0494611
0.0644299
0.138436
0.162472
0.0634389
0.0464342
0.0408134
0.0387154
0.0363147
0.0379958
0.0422467
0.0539154
0.112514
0.132366
0.0531147
0.0400059
0.0360269
0.0348973
0.0337075
0.0344822
0.0375305
0.0467645
0.0940503
0.122898
0.0509084
0.0388896
0.0353167
0.03442
0.0362608
0.0359815
0.0375224
0.0448918
0.0945419
0.0994274
0.0479484
0.0411538
0.0401972
0.041025
0.0492921
0.0478879
0.0497152
0.0592264
0.111716
0.305179
0.110877
0.0784583
0.0672327
0.0621297
0.0720228
0.0815184
0.100988
0.144671
0.407183
0.302253
0.115223
0.0847124
0.0736132
0.0676904
0.0657592
0.0752567
0.0881548
0.128262
0.60592
0.207176
0.12114
0.0937864
0.0806064
0.0649011
0.0661127
0.0757804
0.0860453
0.100198
0.194551
0.193661
0.162575
0.140032
0.120277
0.0954847
0.0721161
0.0813308
0.0936323
0.11526
0.191037
0.445978
0.390463
0.323141
0.262435
0.224287
0.349792
0.459754
0.577497
0.349911
0.33737
0.841625
1.82333
0.815604
0.359715
0.242112
0.148842
0.187032
0.267351
0.432613
0.51106
0.398207
0.255896
0.167494
0.120574
0.0993127
0.0613503
0.0623732
0.0617365
0.0635148
0.0929001
0.0933621
0.0613157
0.0559544
0.0543992
0.0532004
0.0504233
0.0509228
0.0537173
0.063403
0.100766
0.107368
0.0659237
0.0542343
0.0513668
0.0514219
0.0432721
0.0438902
0.0468508
0.0569342
0.109933
0.112989
0.0588081
0.0485424
0.0454079
0.0445432
0.0459093
0.0470055
0.0502577
0.0604589
0.114033
0.129625
0.0630864
0.0507256
0.0468929
0.0458276
0.0507863
0.0526977
0.0583099
0.0750691
0.169304
0.205686
0.0890578
0.0676561
0.0592557
0.0552079
0.0566617
0.061549
0.0702967
0.091465
0.204584
0.188131
0.0852647
0.0658407
0.0589636
0.056017
0.0546931
0.0564533
0.0625893
0.0817691
0.18716
0.195628
0.0809712
0.0611143
0.054833
0.0529021
0.0497606
0.0518017
0.0575021
0.0753604
0.182533
0.151508
0.0670818
0.0531132
0.0486351
0.0468846
0.0471382
0.0490316
0.0534234
0.0657361
0.132392
0.152838
0.0739729
0.0581876
0.0520946
0.0492039
0.0478756
0.0499851
0.0543973
0.0655408
0.116161
0.166956
0.0796972
0.0614753
0.0539763
0.0501383
0.0522229
0.0571745
0.0665422
0.0892258
0.199581
0.242029
0.0956252
0.0681185
0.0573691
0.0517916
0.0535258
0.0595727
0.071185
0.10106
0.260903
0.273839
0.108973
0.0770116
0.0641932
0.0574435
0.0575005
0.0641218
0.076656
0.107751
0.267037
0.249553
0.100126
0.0714174
0.060327
0.0548186
0.0534013
0.0588344
0.0698668
0.0986587
0.249221
0.199487
0.0857863
0.0637771
0.0550288
0.0504846
0.0483282
0.0525939
0.0608165
0.0812836
0.185148
0.221625
0.0838202
0.0588626
0.0498544
0.0457219
0.0435349
0.0470448
0.0540865
0.0716326
0.156285
0.185704
0.0708022
0.0507065
0.0437787
0.0408724
0.038773
0.0413843
0.0469931
0.0612808
0.128918
0.148661
0.0582973
0.0430206
0.0380534
0.0362728
0.0342831
0.0359036
0.0399739
0.0510177
0.104642
0.121707
0.0491294
0.0372798
0.0337321
0.0327635
0.0321511
0.0330195
0.0360764
0.0449934
0.0888499
0.116547
0.0473752
0.0362725
0.0331619
0.0324732
0.0342831
0.0338155
0.0348284
0.0411145
0.0868956
0.104432
0.0485298
0.0409423
0.0397116
0.0401526
0.0489109
0.0484604
0.0519918
0.0647404
0.126017
0.345364
0.121973
0.083764
0.0703418
0.0633917
0.0791239
0.0901641
0.116732
0.175241
0.525153
1.06828
0.166766
0.0978586
0.0828966
0.0756605
0.0690012
0.0749331
0.0861819
0.144417
0.94474
0.67866
0.22591
0.175425
0.17155
0.147932
0.14928
0.16722
0.16212
0.183524
0.440873
0.297385
0.418678
0.289894
0.182827
0.135881
0.237746
0.280038
0.334427
0.415689
0.840903
0.580359
0.354407
0.33443
0.30252
0.247335
0.326493
0.346361
0.375808
0.488929
1.22934
0.861545
0.489585
0.393857
0.346416
0.310793
0.331805
0.378617
0.476906
0.631801
0.751841
1.05819
0.617567
0.530817
0.479431
0.417182
0.371604
0.415836
0.460755
0.556494
1.25771
1.1597
0.518237
0.420916
0.378346
0.341997
0.349238
0.3864
0.441145
0.571026
1.35446
0.594814
0.285576
0.166112
0.117111
0.0982479
0.141782
0.160799
0.219329
0.365081
0.966008
1.16552
0.453241
0.295125
0.22983
0.204669
0.249757
0.279064
0.342642
0.489362
1.20498
0.108182
0.0674969
0.0558798
0.0529946
0.0528299
0.0533641
0.0544739
0.0579393
0.0700803
0.105715
0.106833
0.076193
0.0613642
0.0571812
0.0555646
0.0483587
0.0497174
0.0531619
0.0634923
0.117666
0.134497
0.0664686
0.0537704
0.0497542
0.0485047
0.0539113
0.0561177
0.0622532
0.0801743
0.180155
0.227623
0.0972325
0.0728698
0.0631213
0.0583482
0.0586912
0.064699
0.0750213
0.099239
0.228152
0.19912
0.0874184
0.0669031
0.0597001
0.056242
0.0535346
0.0550643
0.0607464
0.0794111
0.183533
0.182979
0.0769538
0.058664
0.0531785
0.0519324
0.0498203
0.0511355
0.0562057
0.0732845
0.17664
0.151461
0.0655076
0.052082
0.0482051
0.0470987
0.0459397
0.0472012
0.0508857
0.0624736
0.130209
0.121065
0.0640543
0.0530137
0.0489822
0.0471992
0.0483612
0.0516093
0.0582678
0.0754877
0.166558
0.211417
0.0886032
0.0651257
0.055928
0.0513438
0.0536172
0.0598568
0.0719422
0.102327
0.259578
0.287873
0.11088
0.0766549
0.0629993
0.0558666
0.0539941
0.0593609
0.069477
0.0942337
0.217982
0.226489
0.0959418
0.0703554
0.0600409
0.0546246
0.0539092
0.0599756
0.0716568
0.101803
0.263047
0.253332
0.098909
0.0699609
0.0587481
0.0529403
0.0560774
0.0623361
0.0742018
0.103525
0.252633
0.237604
0.0983671
0.0708447
0.0596886
0.0538271
0.0511315
0.05642
0.0672565
0.0958171
0.246427
0.241761
0.0921785
0.0640928
0.0535366
0.0484225
0.0458709
0.0500392
0.0580584
0.0778368
0.175736
0.213581
0.079407
0.0554349
0.0468874
0.0430093
0.041063
0.0444819
0.0513378
0.0682575
0.147197
0.173287
0.0655965
0.0470409
0.0407444
0.038162
0.0364238
0.0388751
0.0441785
0.0576107
0.118974
0.133953
0.0530024
0.0395754
0.0352973
0.0338305
0.0323357
0.0338192
0.0375849
0.047784
0.096203
0.111577
0.0452739
0.0347364
0.0316693
0.0308863
0.0307802
0.0316303
0.0345377
0.0428676
0.0833348
0.105655
0.043164
0.0336547
0.0311666
0.0307451
0.0326414
0.0321795
0.0328911
0.0383662
0.0813894
0.116318
0.0503859
0.0412896
0.0392005
0.0388645
0.048026
0.0482653
0.0528358
0.0675883
0.139886
0.362763
0.124683
0.0871162
0.0734095
0.0644884
0.0947414
0.106925
0.135748
0.19603
0.632772
1.05536
0.19682
0.121082
0.099211
0.0867254
0.158845
0.174205
0.203331
0.281127
0.65004
0.691282
0.254075
0.186549
0.179072
0.165901
0.228468
0.249717
0.266656
0.342902
0.725607
0.728194
0.318548
0.267105
0.25002
0.228302
0.222637
0.230784
0.235681
0.276386
0.601801
0.905173
0.40739
0.321286
0.292175
0.280067
0.311778
0.33513
0.374698
0.4871
1.12749
1.57085
0.573621
0.402383
0.343922
0.313354
0.320217
0.330635
0.370245
0.50387
1.21334
0.900712
0.45326
0.352284
0.315245
0.296304
0.324053
0.346625
0.40098
0.523889
0.75997
0.614392
0.446971
0.354522
0.312487
0.297405
0.32165
0.335829
0.356517
0.417855
0.832513
0.933665
0.424192
0.356668
0.33722
0.324218
0.348911
0.365616
0.39252
0.479968
1.08598
1.13536
0.531322
0.44666
0.420436
0.39684
0.381633
0.422235
0.483367
0.628463
1.49749
1.49218
0.646162
0.505969
0.445029
0.401419
0.40259
0.436132
0.486092
0.609933
1.37771
1.25956
0.561067
0.454732
0.419872
0.402572
0.278707
0.306159
0.359492
0.483977
1.13161
1.02632
0.471611
0.374582
0.336144
0.31573
0.345949
0.359139
0.381232
0.437972
0.762884
0.126316
0.0878509
0.0664127
0.0600779
0.0577042
0.0527787
0.0544382
0.0582668
0.069017
0.125828
0.142387
0.071951
0.058771
0.0545507
0.0530997
0.0582928
0.0608477
0.0677276
0.0869985
0.192142
0.244604
0.105311
0.0782015
0.0668184
0.0613016
0.0598629
0.0662507
0.0777405
0.104688
0.242902
0.208443
0.0879728
0.0661889
0.0590234
0.0557518
0.0516864
0.0529593
0.0583693
0.0773381
0.187579
0.177467
0.0731934
0.0556085
0.0505524
0.0495622
0.0480082
0.0488617
0.0532967
0.0690223
0.164972
0.140093
0.0617277
0.0495694
0.0464144
0.0459645
0.0439613
0.0442097
0.0465683
0.0559365
0.116085
0.0858875
0.0527219
0.0464368
0.0446029
0.0442344
0.0458738
0.0477191
0.0521299
0.0641204
0.125781
0.155935
0.0717878
0.0550939
0.0485498
0.0454225
0.0490037
0.0538275
0.0632072
0.0867659
0.209214
0.237313
0.0943725
0.0668703
0.0558524
0.0500484
0.0507923
0.0570185
0.0687865
0.0982205
0.251607
0.297374
0.114304
0.0787727
0.0645521
0.057086
0.0570018
0.0644093
0.0784567
0.113398
0.292552
0.229828
0.0956078
0.0696007
0.0592819
0.0539286
0.0522557
0.0574986
0.0677298
0.0938618
0.229835
0.23713
0.0938838
0.0668946
0.0564017
0.0509629
0.0484195
0.0534728
0.0631857
0.0880237
0.219145
0.22277
0.0928293
0.0670702
0.056617
0.0511429
0.0484237
0.0535777
0.0634357
0.0877075
0.210024
0.23598
0.0883351
0.0608784
0.0506376
0.0456933
0.0434834
0.0475869
0.0554423
0.0746805
0.168297
0.206206
0.0754063
0.0522914
0.0441198
0.0404301
0.0386972
0.0420425
0.0487438
0.0652207
0.140716
0.163842
0.0613388
0.0438862
0.0380381
0.0356719
0.0341782
0.036479
0.0415164
0.0543213
0.11169
0.123563
0.0488682
0.0366959
0.0329152
0.0316752
0.030591
0.0319249
0.0353986
0.0449083
0.0900984
0.10492
0.0422662
0.0327001
0.0300172
0.029379
0.0295307
0.030335
0.0331369
0.0410231
0.078515
0.0901396
0.038488
0.0309005
0.0291926
0.0291444
0.0313189
0.0309313
0.0315463
0.0364775
0.0762828
0.12359
0.0513949
0.0409659
0.0381033
0.0371915
0.0455828
0.0460279
0.0510631
0.0667041
0.145114
0.343541
0.119945
0.0870762
0.0729512
0.0620511
0.124374
0.153799
0.185014
0.235658
0.716928
0.974443
0.243222
0.167657
0.134077
0.105563
0.155935
0.184088
0.220779
0.301421
0.633322
0.541561
0.330493
0.252211
0.215733
0.194141
0.212278
0.227632
0.257677
0.343083
0.643924
0.836084
0.426049
0.313721
0.274803
0.257404
0.279624
0.303175
0.340431
0.448883
0.920323
0.928392
0.42488
0.336093
0.302773
0.285407
0.28333
0.317654
0.383075
0.586116
1.82113
1.7851
0.592208
0.389381
0.319134
0.281554
0.340743
0.379391
0.450978
0.624198
1.48941
1.16626
0.541185
0.423159
0.376777
0.354286
0.307224
0.313972
0.341874
0.402822
0.711175
0.590418
0.357302
0.305795
0.285829
0.279393
0.279639
0.284103
0.304397
0.372784
0.748012
0.739585
0.402628
0.325737
0.303196
0.298033
0.28992
0.29129
0.310014
0.362994
0.533055
0.715677
0.35902
0.312216
0.304609
0.307074
0.330781
0.327882
0.331698
0.376686
0.712882
0.721153
0.420562
0.387429
0.385983
0.378638
0.379358
0.399366
0.405754
0.42941
0.669553
1.09544
0.549084
0.474137
0.447456
0.420594
0.401569
0.4217
0.447723
0.513579
1.00338
0.959564
0.468288
0.401787
0.383428
0.379777
0.381919
0.378989
0.394012
0.474186
1.06941
1.2285
0.546027
0.450033
0.426487
0.419591
0.461903
0.460535
0.470655
0.545919
1.1586
0.969546
0.514626
0.466593
0.465462
0.468736
0.304403
0.305158
0.318564
0.374068
0.751436
0.189198
0.110348
0.0827301
0.0704588
0.0656951
0.0601007
0.0621499
0.0665279
0.0778179
0.138624
0.152254
0.0798249
0.0661189
0.0616165
0.05986
0.0635701
0.0664554
0.0744382
0.095746
0.204063
0.250871
0.111271
0.0814341
0.0685086
0.0629702
0.0596998
0.0651468
0.0762691
0.104085
0.242554
0.218815
0.0888205
0.0654482
0.0580519
0.0551032
0.0505748
0.0525411
0.0593075
0.0812796
0.206586
0.190653
0.0745494
0.0548638
0.0489066
0.0473299
0.0450436
0.0459631
0.0503287
0.0658188
0.161733
0.131374
0.0569973
0.0457712
0.0431152
0.0430043
0.0407411
0.04013
0.0412733
0.0483983
0.0991422
0.0762527
0.0438828
0.0390005
0.0382196
0.038791
0.037681
0.0374566
0.0387908
0.0447029
0.0778385
0.0671768
0.0449843
0.0406261
0.0395564
0.0395224
0.0428378
0.0440988
0.047215
0.0559413
0.0984402
0.122224
0.0643637
0.051843
0.0468648
0.0445246
0.0455028
0.0486547
0.0549264
0.0701041
0.139788
0.17972
0.0774388
0.0575028
0.049477
0.0453625
0.0453665
0.050067
0.0590269
0.0812654
0.196141
0.205947
0.0830257
0.0594995
0.0500986
0.045151
0.0507933
0.0570814
0.0689932
0.0989227
0.255463
0.251767
0.097246
0.0677736
0.0560842
0.0499296
0.0557518
0.0628775
0.0762855
0.10939
0.277999
0.257315
0.103211
0.0727111
0.0602376
0.0535484
0.0499338
0.0550884
0.0652642
0.0915415
0.229038
0.223776
0.0881166
0.0622448
0.0522607
0.0472217
0.0457057
0.0504478
0.0595215
0.0825842
0.203687
0.190421
0.0776052
0.0560271
0.047489
0.0430084
0.0458555
0.0507781
0.0601705
0.0832548
0.199635
0.230167
0.0847828
0.0579706
0.0480207
0.0432143
0.0414564
0.0455192
0.0532477
0.0721008
0.163313
0.201667
0.0725463
0.049914
0.0419432
0.0383277
0.0368237
0.0401525
0.0467943
0.0631307
0.137889
0.160546
0.0589746
0.0418334
0.0361213
0.0337975
0.0324102
0.0346764
0.039654
0.0523652
0.109181
0.120107
0.0466433
0.0347762
0.0311557
0.029995
0.0290465
0.0302937
0.0336328
0.0429035
0.0870963
0.100154
0.0399309
0.0309606
0.0285245
0.0279938
0.0281183
0.0288123
0.0313996
0.0388395
0.0737455
0.0788822
0.0345973
0.0283992
0.0272686
0.0275076
0.0294764
0.028841
0.0290994
0.0332325
0.0681795
0.114807
0.047497
0.0378691
0.0353518
0.0346423
0.0414639
0.0414549
0.0458826
0.0600118
0.134773
0.314484
0.108805
0.0815188
0.066702
0.0556375
0.12438
0.171911
0.207852
0.291764
0.610911
0.93886
0.271071
0.180712
0.140438
0.104834
0.153551
0.182146
0.226026
0.319151
0.712497
0.731816
0.362292
0.264087
0.220428
0.201666
0.255346
0.271218
0.312662
0.420192
0.798197
0.624368
0.40252
0.302032
0.255364
0.23277
0.25034
0.277866
0.338739
0.512893
1.2919
1.56611
0.535103
0.35564
0.299242
0.271303
0.282226
0.31356
0.377412
0.574722
1.71291
1.60407
0.659866
0.478245
0.404992
0.363856
0.34479
0.388026
0.464597
0.652107
1.61262
2.53687
0.768307
0.485956
0.388359
0.33635
0.341284
0.380496
0.456063
0.677105
2.06717
1.33965
0.553261
0.427055
0.381253
0.358728
0.31454
0.315641
0.325698
0.36577
0.589538
0.438664
0.323702
0.321596
0.323932
0.328645
0.284085
0.281445
0.283292
0.290721
0.403868
0.404454
0.330586
0.360591
0.381826
0.375324
0.297759
0.297238
0.313706
0.38489
0.778867
0.567051
0.3562
0.309516
0.296831
0.29761
0.320366
0.318833
0.323051
0.355864
0.534562
0.443886
0.360362
0.385756
0.402976
0.387074
0.295352
0.299593
0.296993
0.292774
0.338485
0.373419
0.268044
0.255831
0.259547
0.269323
0.339404
0.349834
0.36353
0.394747
0.637583
0.726015
0.382176
0.335991
0.327376
0.333147
0.344945
0.338309
0.34882
0.41734
0.925815
1.1565
0.475251
0.377404
0.355597
0.354668
0.397387
0.396824
0.414857
0.508429
1.20785
1.17601
0.503127
0.414526
0.395694
0.392789
0.329428
0.332743
0.352951
0.43448
1.00219
0.718475
0.367776
0.33769
0.343575
0.350476
0.280143
0.278718
0.294543
0.369133
0.895227
0.289446
0.161472
0.112451
0.0926615
0.0848589
0.0709648
0.0732055
0.0771027
0.0882647
0.152249
0.160759
0.0886444
0.0746002
0.069809
0.0677444
0.069255
0.0719841
0.0806817
0.104076
0.212746
0.2472
0.112296
0.0814192
0.0690765
0.0645313
0.060365
0.0648809
0.0749667
0.102993
0.24395
0.242496
0.0968032
0.0694996
0.0602853
0.0565658
0.0521518
0.0560863
0.0663375
0.0956291
0.245566
0.2246
0.0855194
0.0598115
0.0509312
0.0474989
0.0433611
0.0455503
0.0516111
0.0704016
0.181272
0.141316
0.0577147
0.0448522
0.0412607
0.040306
0.0378026
0.0376747
0.0392598
0.0471954
0.105433
0.0795713
0.0408807
0.0355804
0.0348609
0.0355127
0.0342357
0.0332544
0.0331874
0.0360915
0.0573597
0.0662965
0.0402318
0.0362378
0.035686
0.0360935
0.0403348
0.0409056
0.0435568
0.0525203
0.102028
0.121325
0.0593862
0.0475611
0.0434891
0.0420174
0.04304
0.0452291
0.0503294
0.0641773
0.135876
0.143011
0.0664648
0.051465
0.0456988
0.0430136
0.0454688
0.0491516
0.0562096
0.0729727
0.149814
0.15486
0.0736449
0.0560484
0.0485779
0.0445934
0.0430215
0.0471641
0.0547957
0.0726774
0.156372
0.211052
0.08322
0.0590636
0.0495138
0.044508
0.0432093
0.0481203
0.0576011
0.081802
0.211068
0.241626
0.0935506
0.0652811
0.0540715
0.0481747
0.0456589
0.0511681
0.0616311
0.0879284
0.22496
0.234574
0.0957728
0.0680848
0.0566746
0.0505344
0.047091
0.0526171
0.0629304
0.0878878
0.21224
0.215199
0.0836582
0.0586594
0.0490431
0.0442023
0.0407906
0.0452821
0.0543028
0.0779588
0.203447
0.176225
0.0722414
0.0522941
0.0443761
0.0402303
0.0432938
0.0479518
0.0568515
0.0786898
0.189001
0.223698
0.0812651
0.0551856
0.0455453
0.04088
0.0397809
0.0438065
0.051417
0.0699413
0.15971
0.199784
0.0707455
0.0482626
0.0403462
0.0367159
0.0355676
0.0389356
0.0456078
0.062044
0.137967
0.162876
0.0584509
0.0409323
0.0350822
0.0326444
0.0313972
0.0337679
0.0389114
0.0520401
0.111127
0.12236
0.0462407
0.0339701
0.0302199
0.0289811
0.0279145
0.0292008
0.0326209
0.0421546
0.0873833
0.0993154
0.038588
0.0296359
0.0272514
0.0267626
0.0267359
0.0274174
0.0299575
0.0373951
0.0726475
0.074824
0.0322044
0.026393
0.025414
0.0257749
0.0268843
0.0257586
0.0252993
0.027939
0.0551225
0.0937561
0.0401301
0.0331205
0.0316451
0.0314265
0.0370536
0.036443
0.0398406
0.0513175
0.113376
0.541366
0.138035
0.084161
0.0613624
0.0505611
0.119591
0.181493
0.254502
0.386886
0.838281
1.28693
0.363113
0.221252
0.156642
0.112208
0.195647
0.226598
0.27905
0.393148
0.97204
0.990525
0.429978
0.327398
0.289294
0.271747
0.338849
0.349863
0.38076
0.497604
1.13602
1.06256
0.468528
0.378734
0.348546
0.329096
0.265518
0.281974
0.322923
0.437975
0.885437
0.906226
0.479356
0.364881
0.319137
0.302361
0.317045
0.346959
0.411119
0.571428
1.25176
1.49772
0.63153
0.457052
0.393825
0.361772
0.360255
0.426249
0.542708
0.870266
2.91034
2.95064
0.869029
0.537317
0.419648
0.354331
0.42251
0.489168
0.619302
0.931279
2.37849
2.03366
0.832778
0.565675
0.460775
0.414997
0.426372
0.458737
0.532294
0.725138
1.64348
1.12359
0.581961
0.482117
0.444589
0.426363
0.40669
0.426564
0.464961
0.568172
1.23185
0.440526
0.305158
0.308212
0.328416
0.335538
0.359035
0.373049
0.412327
0.4977
0.841273
0.511694
0.399966
0.425986
0.426316
0.402163
0.485507
0.53898
0.540081
0.499054
0.666449
0.688018
0.390802
0.355131
0.339131
0.324896
0.387938
0.396417
0.400431
0.398441
0.431962
0.310265
0.314874
0.34731
0.367024
0.370788
0.277739
0.261379
0.256216
0.280609
0.412588
0.398849
0.250754
0.2287
0.231803
0.246654
0.256951
0.247837
0.250351
0.280261
0.504135
0.56495
0.305479
0.272141
0.272361
0.283992
0.30608
0.298884
0.307493
0.368329
0.809288
1.06816
0.444847
0.351236
0.329625
0.32935
0.340353
0.346543
0.376163
0.487965
1.23666
1.23743
0.489594
0.381425
0.35416
0.348298
0.32603
0.335487
0.365351
0.468626
1.17795
0.992792
0.454339
0.370808
0.34531
0.336549
0.307396
0.310338
0.326604
0.375764
0.691899
0.388915
0.262037
0.2711
0.28707
0.296424
0.300413
0.296255
0.303725
0.362184
0.840781
0.465027
0.248673
0.154187
0.125556
0.1152
0.0838336
0.0862503
0.0888798
0.097939
0.1609
0.163772
0.0954011
0.0816823
0.0769143
0.0746556
0.0755602
0.077807
0.0863888
0.111123
0.219149
0.244228
0.113282
0.0823737
0.0710876
0.0676036
0.0627004
0.0667078
0.0766898
0.105509
0.248418
0.260948
0.104669
0.0741327
0.0636362
0.0594407
0.0550647
0.0601859
0.0726371
0.107315
0.274491
0.254561
0.097319
0.0655909
0.0540668
0.0491191
0.0426942
0.0463362
0.0547981
0.0786865
0.205406
0.154418
0.0606503
0.0446756
0.0394161
0.037309
0.0334136
0.034019
0.0364149
0.045495
0.10898
0.0762953
0.0355322
0.0306702
0.0300556
0.030515
0.0291791
0.0281945
0.027669
0.0289162
0.0426451
0.0471249
0.0309063
0.0288367
0.0289478
0.0295718
0.0298245
0.0296654
0.0303706
0.033969
0.0553653
0.0740181
0.0445093
0.039384
0.0379872
0.0376521
0.038699
0.0395878
0.0415377
0.0474099
0.0798169
0.0808731
0.0481315
0.0419385
0.0397137
0.0385268
0.0374935
0.0389182
0.0413714
0.0477462
0.0798923
0.14521
0.0669178
0.0513578
0.0451953
0.0421909
0.0406481
0.0438066
0.0501524
0.0658271
0.143402
0.135622
0.063307
0.0481133
0.0417611
0.0386375
0.0409221
0.0450923
0.0526577
0.0701435
0.153092
0.141314
0.0655307
0.0492646
0.0420902
0.038233
0.0410985
0.0456824
0.0547721
0.0781794
0.203201
0.180654
0.0709654
0.0501763
0.0422336
0.0383398
0.042463
0.0473416
0.0566916
0.080071
0.200256
0.165983
0.0692968
0.0502525
0.0426583
0.038789
0.0430547
0.047752
0.056694
0.078466
0.187081
0.142633
0.0639225
0.0474698
0.0407656
0.0374357
0.0363408
0.0400041
0.047697
0.0683076
0.178199
0.152604
0.0640365
0.0468915
0.0401156
0.0366879
0.0399303
0.0440619
0.0520502
0.0717481
0.171156
0.212367
0.0763111
0.0515585
0.0424764
0.038118
0.0379755
0.0418556
0.0492144
0.0671128
0.153714
0.196952
0.0688238
0.0466163
0.0388142
0.0352222
0.0346276
0.0380174
0.0447062
0.0612072
0.13807
0.166906
0.0586252
0.0405443
0.0344872
0.0319037
0.0308947
0.0334233
0.0388076
0.052507
0.114499
0.126644
0.0466949
0.0338033
0.0298179
0.0284263
0.0271604
0.0286059
0.0322472
0.0422578
0.0886798
0.0978902
0.0374769
0.0284981
0.0261022
0.0255982
0.0253032
0.0260042
0.0285071
0.0359673
0.0717855
0.0739535
0.0306696
0.0247929
0.0236779
0.0239773
0.0240802
0.0227511
0.0220285
0.0239725
0.0459059
0.0738571
0.033273
0.0286879
0.0279873
0.028035
0.0331377
0.0317899
0.0342564
0.0439196
0.0939204
1.04125
0.261146
0.102636
0.0628522
0.0496566
0.12901
0.199054
0.335466
0.579496
1.31926
1.71249
0.462615
0.280163
0.184707
0.12935
0.256567
0.283906
0.341269
0.4586
1.1885
1.09588
0.469414
0.36381
0.332516
0.32414
0.341553
0.343272
0.371432
0.481236
1.09473
0.947323
0.415954
0.340499
0.328485
0.328193
0.33472
0.337843
0.347124
0.405644
0.803403
0.904742
0.474565
0.393335
0.360642
0.340025
0.328748
0.347047
0.393444
0.545664
1.49777
1.98086
0.645957
0.428449
0.359633
0.329847
0.338763
0.389463
0.486503
0.7723
2.5319
2.12739
0.853526
0.578279
0.465988
0.407989
0.430461
0.503981
0.635816
0.943933
2.38416
2.83994
0.891238
0.576006
0.465641
0.408889
0.412925
0.460201
0.559778
0.851952
2.6412
2.15821
0.76477
0.530739
0.450935
0.415559
0.416165
0.444831
0.504945
0.675256
1.72667
1.38088
0.682731
0.539896
0.483999
0.456707
0.417539
0.439427
0.478119
0.575077
1.14665
1.63133
0.642401
0.477688
0.420915
0.396828
0.362369
0.376456
0.410298
0.502523
0.99936
0.97927
0.517158
0.428389
0.39366
0.377353
0.495882
0.542428
0.561143
0.549577
0.835054
0.954333
0.548344
0.511897
0.514938
0.502849
0.582275
0.557099
0.528088
0.540185
0.828614
1.1715
0.61551
0.512217
0.470988
0.452353
0.423346
0.42898
0.459402
0.56406
1.21029
0.934675
0.430529
0.34168
0.317169
0.316005
0.27072
0.272941
0.301181
0.369949
0.585366
0.538203
0.337117
0.291796
0.272949
0.27366
0.279551
0.273966
0.282634
0.335034
0.664197
0.936287
0.408753
0.330108
0.315029
0.317856
0.352895
0.356931
0.38273
0.48483
1.15275
1.14624
0.505874
0.402533
0.367053
0.352942
0.335833
0.346859
0.379699
0.490974
1.23809
1.06976
0.469794
0.380617
0.354526
0.344852
0.374282
0.381517
0.402275
0.470194
0.861174
0.831401
0.454959
0.403351
0.380427
0.368522
0.344053
0.360359
0.373447
0.38684
0.699066
0.55942
0.328287
0.317377
0.320241
0.320249
0.330469
0.32567