/*--------------------------------*- C++ -*----------------------------------*\
| =========                 |                                                 |
| \\      /  F ield         | OpenFOAM: The Open Source CFD Toolbox           |
|  \\    /   O peration     | Version:  2306                                  |
|   \\  /    A nd           | Website:  www.openfoam.com                      |
|    \\/     M anipulation  |                                                 |
\*---------------------------------------------------------------------------*/
FoamFile
{
    version     2.0;
    format      ascii;
    arch        "LSB;label=32;scalar=64";
    class       volScalarField;
    location    "4";
    object      k;
}
// * * * * * * * * * * * * * * * * * * * * * * * * * * * * * * * * * * * * * //

dimensions      [0 2 -2 0 0 0 0];

internalField   nonuniform List<scalar> 
143976
(
0.0368553
0.0290374
0.0255846
0.0214517
0.016101
0.00735737
0.00834019
0.0174277
0.0224482
0.0262897
0.0296179
0.0312691
0.027941
0.024013
0.0187513
0.00891305
0.0101789
0.0214556
0.027561
0.0321588
0.0361482
0.0351787
0.0315738
0.0272642
0.0214099
0.010067
0.00810251
0.0179104
0.023922
0.0285285
0.0323398
0.033183
0.0295613
0.0252728
0.0195873
0.00914296
0.0112218
0.0229471
0.0290624
0.0335981
0.0374986
0.0328735
0.0291127
0.0246419
0.0187582
0.00871431
0.00981753
0.020206
0.0257124
0.0298954
0.0335912
0.0293081
0.025733
0.0216167
0.0163688
0.00755833
0.00834235
0.0176848
0.0228264
0.0267572
0.0301687
0.0268056
0.0238308
0.0203542
0.0157921
0.00754673
0.00753966
0.0157658
0.0204924
0.0241272
0.0272124
0.0257966
0.0226609
0.0190015
0.0142879
0.00668978
0.0329126
0.0351696
0.029073
0.0257004
0.0218509
0.0168657
0.00769111
0.00713541
0.0154135
0.0204838
0.0245188
0.0280909
0.0314175
0.0274643
0.0231222
0.0176764
0.00842319
0.00875139
0.0183968
0.0238135
0.0279834
0.0316623
0.0357694
0.0316505
0.0269803
0.0208981
0.00998353
0.0106103
0.0226251
0.0293772
0.0345978
0.0392318
0.0404659
0.0359707
0.0308117
0.0240013
0.0114404
0.0115068
0.0242362
0.0309946
0.0360047
0.0402702
0.0383463
0.0346095
0.0300175
0.0236584
0.0109883
0.00875315
0.0194524
0.0258164
0.0306537
0.0346526
0.0357239
0.0319888
0.0274494
0.0213007
0.00984949
0.01236
0.025093
0.0316064
0.0363121
0.0402453
0.0365453
0.0325901
0.0277997
0.0213443
0.0100056
0.0111224
0.0239345
0.0308476
0.0359023
0.0400508
0.0409167
0.0368135
0.0320123
0.0254538
0.0125052
0.00961017
0.0208991
0.0272295
0.0319744
0.0359309
0.0365445
0.0325813
0.028084
0.0221294
0.0107238
0.00822042
0.0179121
0.0235805
0.0280023
0.0318335
0.0325675
0.0289087
0.0246977
0.0191749
0.00911588
0.0100519
0.0211002
0.027116
0.0317194
0.0357935
0.0332811
0.0295399
0.0252587
0.0196268
0.00922317
0.00969063
0.0204173
0.0261969
0.0306573
0.0346674
0.0301656
0.026519
0.0223871
0.0171325
0.00781974
0.00735989
0.0159395
0.0210884
0.0253009
0.0291433
0.0315726
0.0273169
0.0227211
0.0171045
0.00802545
0.00860871
0.018301
0.024381
0.0293585
0.0339513
0.0346356
0.030282
0.0254762
0.0194106
0.00919183
0.00997346
0.0210742
0.0277284
0.0330263
0.0378291
0.0412447
0.036001
0.0303607
0.0232347
0.0112981
0.0113984
0.0241847
0.0315631
0.0373487
0.0426874
0.044363
0.039044
0.0331253
0.0255553
0.0120078
0.0130186
0.0270112
0.0345843
0.0403031
0.0452492
0.0435944
0.0391608
0.0338636
0.0266178
0.0127114
0.0116259
0.0248943
0.0314152
0.0360882
0.039861
0.0355192
0.0314976
0.0266493
0.0202317
0.00922669
0.00978333
0.0213049
0.0276893
0.0324133
0.0362853
0.04079
0.0368697
0.0320907
0.0254093
0.0124373
0.0110322
0.0233683
0.0301111
0.0350624
0.0391562
0.0430805
0.0387976
0.0335454
0.0262756
0.0124656
0.0137814
0.0278635
0.0348546
0.0398288
0.0439416
0.0453891
0.041124
0.0359801
0.0287681
0.0141913
0.0114257
0.0246525
0.0317194
0.0368764
0.0410972
0.0419569
0.0377276
0.032797
0.026079
0.0128113
0.00986508
0.021362
0.0277848
0.032603
0.0366302
0.0371105
0.0330239
0.028413
0.0223493
0.0108586
0.00831753
0.0179402
0.0236583
0.0281474
0.0320726
0.0328797
0.0291372
0.0248696
0.0193126
0.00926903
0.0100962
0.0209785
0.0270238
0.0317446
0.0360117
0.0373374
0.0326415
0.0276507
0.0214223
0.0103376
0.0104181
0.0216057
0.0277078
0.0324832
0.0368877
0.0313238
0.0273971
0.0229606
0.0173716
0.0080749
0.00952356
0.0191012
0.0243996
0.0284212
0.0318989
0.028264
0.0250838
0.021449
0.0166975
0.00804735
0.00700567
0.0151107
0.0194735
0.022803
0.0256392
0.0270902
0.0237061
0.0198155
0.014889
0.00641936
0.00661674
0.0147363
0.0196736
0.0236487
0.0269728
0.0293792
0.0259544
0.0219221
0.0167216
0.00768779
0.0368745
0.040633
0.0363937
0.0340736
0.030921
0.0250148
0.0121151
0.00852935
0.0203264
0.0265893
0.0299938
0.0319142
0.0277094
0.0239712
0.0197944
0.0147139
0.00663429
0.0074096
0.0168715
0.0232811
0.0281775
0.0324159
0.0301746
0.0259934
0.0214433
0.0158357
0.00711236
0.00795186
0.0172405
0.0232272
0.0281543
0.0326913
0.0344123
0.0296528
0.0244999
0.0182516
0.00855943
0.00922714
0.0190752
0.0255369
0.0308948
0.0358609
0.0365946
0.0316685
0.026319
0.0197911
0.00949437
0.0107758
0.0217317
0.0286087
0.0342061
0.039392
0.0422877
0.0369832
0.0312198
0.0239965
0.0120624
0.0129205
0.0260525
0.0336985
0.0395753
0.0449466
0.0466559
0.0409414
0.0346857
0.0265782
0.012748
0.0127686
0.0271587
0.0355503
0.0422001
0.0483391
0.0499213
0.0441611
0.0375983
0.0291205
0.0138366
0.0144191
0.0295134
0.0375995
0.0435752
0.0486097
0.0446322
0.0401518
0.0347585
0.027342
0.0129574
0.0111942
0.0241672
0.0306583
0.0353646
0.0391713
0.0356094
0.031778
0.0270791
0.020742
0.00963523
0.00924579
0.0199058
0.0262208
0.0310086
0.035007
0.0389843
0.0350604
0.0302831
0.0236975
0.0114885
0.0118017
0.0243999
0.0311304
0.0360318
0.0400917
0.0442585
0.0400137
0.0347964
0.0274917
0.0133413
0.0140283
0.0284879
0.035696
0.0407645
0.0448691
0.0468045
0.0425283
0.0372572
0.0297653
0.0146117
0.0127651
0.0271376
0.0346466
0.0400647
0.044471
0.0441193
0.039705
0.034288
0.0267924
0.0124682
0.0141338
0.0286417
0.0358474
0.0410211
0.0453469
0.0405775
0.0364099
0.031306
0.0243102
0.0113151
0.0126748
0.0256781
0.0323216
0.0372283
0.0414652
0.0358309
0.0318742
0.0271574
0.0208828
0.00976909
0.010633
0.0217063
0.0276404
0.0321909
0.0362537
0.031041
0.0271722
0.0227936
0.0172529
0.00812864
0.00900735
0.0186292
0.0240366
0.0282458
0.0319806
0.0349919
0.0305889
0.0258036
0.0198485
0.00951321
0.0100157
0.0208692
0.0271989
0.032388
0.0373151
0.0339435
0.0288995
0.0235427
0.0173559
0.00842845
0.0120169
0.0228508
0.0291423
0.0339161
0.0377546
0.0352631
0.0315417
0.0271132
0.0212525
0.0109093
0.0119284
0.0229545
0.0295346
0.034268
0.0381014
0.0362724
0.0324395
0.0278771
0.0216027
0.0107418
0.00882216
0.0182901
0.0238161
0.0280886
0.0318282
0.0274619
0.024169
0.0204757
0.015759
0.00740999
0.0350319
0.0419407
0.0517853
0.0441726
0.0405096
0.0379631
0.0368152
0.0206994
0.0224162
0.0364843
0.0461517
0.0552612
0.0593849
0.0480563
0.0438837
0.0369964
0.0271883
0.0106103
0.00771561
0.0169505
0.0234729
0.0288482
0.0336567
0.0351034
0.0302571
0.024854
0.0182989
0.00840015
0.00894198
0.0189287
0.0255413
0.031029
0.0359947
0.0364883
0.0315127
0.0260694
0.0195223
0.00951816
0.0100106
0.0200791
0.0266734
0.0321329
0.0371954
0.0386889
0.0335869
0.0280364
0.0212636
0.0107018
0.0110698
0.0221039
0.0290879
0.0347518
0.0398865
0.0445169
0.0391824
0.0332736
0.0257426
0.0129164
0.0142033
0.0284301
0.0364393
0.0424575
0.047813
0.0496021
0.0439114
0.0374351
0.0288596
0.0141147
0.0137936
0.0288364
0.0376785
0.0446029
0.0509468
0.0526152
0.0464191
0.0394116
0.0304323
0.0144484
0.0152845
0.0313469
0.0399817
0.0464038
0.0518521
0.048384
0.0436235
0.0378607
0.0298938
0.0146462
0.012438
0.0265697
0.0335941
0.0386574
0.0427944
0.0387876
0.0342618
0.0289196
0.0219221
0.00998475
0.0135092
0.0272249
0.0343102
0.0393692
0.0435541
0.0395941
0.035718
0.0309725
0.0243784
0.0120118
0.0135655
0.0274921
0.0346615
0.0397094
0.0437521
0.0433629
0.0392492
0.034149
0.0269756
0.0131462
0.0139306
0.0286524
0.0361655
0.0414887
0.0457788
0.0459978
0.0415679
0.036117
0.0284926
0.0136603
0.0133203
0.028255
0.0359501
0.0414764
0.0459817
0.0472142
0.0428785
0.0375616
0.0300266
0.0147131
0.0145944
0.029603
0.0370074
0.0422622
0.0465811
0.0427395
0.0384029
0.0330899
0.0257646
0.0120275
0.0138201
0.0278021
0.0348355
0.0399394
0.0442556
0.039066
0.034977
0.0300054
0.0232394
0.0109823
0.0122244
0.0245594
0.0309754
0.0357693
0.0399531
0.0342171
0.0303912
0.0258571
0.0198597
0.00946216
0.0101863
0.020632
0.0263254
0.030726
0.0346799
0.0295482
0.0258165
0.0216171
0.0163164
0.00781089
0.0086194
0.0177585
0.0229946
0.0271085
0.0307703
0.03386
0.0293865
0.0245306
0.0186107
0.00874295
0.00979426
0.0207235
0.0272035
0.0325374
0.0375211
0.0349729
0.0299902
0.0245339
0.0182481
0.00888246
0.013327
0.0245567
0.0309983
0.0358681
0.0394566
0.0414462
0.0383586
0.0338614
0.0270533
0.0155343
0.0132751
0.0244567
0.0312676
0.0360794
0.0396601
0.044977
0.0430322
0.0399779
0.0350299
0.0255463
0.0138886
0.0255132
0.0345592
0.0395643
0.0439269
0.0416761
0.0380204
0.033226
0.0256783
0.0131642
0.0145447
0.0304195
0.0379049
0.0433093
0.0468679
0.0428899
0.03879
0.0355681
0.0282985
0.015593
0.0238325
0.0570812
0.0665991
0.070711
0.0760047
0.0893371
0.0894976
0.0883044
0.0506353
0.0185752
0.0427167
0.15902
0.120903
0.0904229
0.0835339
0.0653558
0.0650341
0.0646421
0.0615585
0.0312428
0.0244566
0.0451424
0.0494057
0.0507711
0.0528563
0.0414774
0.0368705
0.0304467
0.0223022
0.00928297
0.00901278
0.0209908
0.0283864
0.0343369
0.0390905
0.0389044
0.0337271
0.027835
0.0208399
0.00928331
0.00970222
0.0213496
0.0284125
0.0344846
0.0399568
0.0372568
0.0323108
0.0268852
0.0203011
0.0100008
0.0102056
0.020801
0.0274961
0.0329714
0.0379168
0.038469
0.0335038
0.0279495
0.0211304
0.0102976
0.0112793
0.0226874
0.0298803
0.0356649
0.0408419
0.0462699
0.0409224
0.034873
0.0270614
0.0135172
0.015343
0.0306172
0.0388147
0.0448419
0.0500852
0.0515354
0.0461702
0.0397878
0.0310358
0.0152339
0.0144442
0.0297697
0.0387517
0.045675
0.0518306
0.0525971
0.0462366
0.0391761
0.0302099
0.0145345
0.0151599
0.0310949
0.0398204
0.0464752
0.0523021
0.0495389
0.0443141
0.0381828
0.0299525
0.0147014
0.0126605
0.0266306
0.0340728
0.0396423
0.0443971
0.0379008
0.0338655
0.0289971
0.0225518
0.0102411
0.00910702
0.0195969
0.02571
0.0303651
0.0342442
0.0341846
0.0299548
0.0249396
0.0185655
0.00855728
0.0110564
0.0224922
0.0292009
0.034125
0.0381334
0.0420813
0.0380686
0.0329622
0.0257544
0.0126397
0.015619
0.030964
0.0385278
0.0437651
0.0479844
0.0506337
0.0462831
0.0408223
0.0328773
0.0165319
0.0140523
0.0287813
0.0363141
0.0416128
0.0458446
0.0462505
0.0419193
0.0365061
0.0288394
0.0138441
0.0142032
0.0293317
0.0369444
0.0423288
0.0466757
0.0464428
0.0421422
0.0368286
0.0293074
0.0142143
0.0127226
0.0272882
0.0348638
0.0403374
0.0448196
0.0430604
0.0386969
0.0333757
0.0260358
0.0121062
0.014353
0.0287948
0.0359648
0.0410847
0.0453277
0.0409143
0.0366806
0.0315186
0.0244489
0.0115872
0.0133243
0.0265295
0.0332894
0.0382514
0.0424922
0.0369593
0.0329918
0.0282068
0.0217629
0.0104926
0.0115507
0.0230038
0.029112
0.0337403
0.0378246
0.0321777
0.0285112
0.0241965
0.0185406
0.00902655
0.00964637
0.0193741
0.0247597
0.028954
0.0327428
0.027924
0.0243928
0.0204315
0.015433
0.00751765
0.00833389
0.0168876
0.0218667
0.0258229
0.0293569
0.0325988
0.0282197
0.0234124
0.017605
0.00830364
0.0101008
0.0211219
0.0274855
0.0326862
0.0374007
0.0352297
0.0306881
0.025552
0.0194857
0.00959553
0.014408
0.0260839
0.0325366
0.0373545
0.0403515
0.0437935
0.0406942
0.036219
0.0298721
0.0180509
0.0385176
0.0451517
0.0464411
0.0475432
0.0471473
0.0460896
0.0455395
0.0439805
0.0420469
0.0352035
0.0347235
0.050851
0.0607198
0.0688065
0.069285
0.0683278
0.0666947
0.0557501
0.0437894
0.0264578
0.0192307
0.0599629
0.0599864
0.056022
0.0567676
0.0825039
0.080231
0.0753865
0.0638772
0.0353459
0.0284753
0.0551601
0.0707524
0.0785159
0.0810012
0.101081
0.0931681
0.0839736
0.0707648
0.0382074
0.0305273
0.065258
0.0790298
0.0870273
0.0932348
0.0940203
0.0852549
0.0773387
0.0658702
0.0274337
0.0391653
0.0957619
0.120839
0.133969
0.136494
0.147396
0.142995
0.130624
0.105908
0.0524442
0.0514214
0.1032
0.127768
0.141994
0.148996
0.156622
0.149136
0.134776
0.109223
0.0547701
0.028428
0.0503413
0.0526181
0.0531675
0.0552325
0.0736302
0.0698332
0.0688368
0.0648302
0.0383678
0.0445183
0.0786755
0.0871507
0.0907189
0.0957485
0.110473
0.105038
0.0989061
0.0856375
0.0465205
0.00982456
0.0219217
0.0291006
0.0352168
0.0406644
0.0406701
0.0354933
0.0294429
0.0221936
0.00976397
0.00987146
0.0224967
0.0299843
0.0362295
0.0413777
0.0395906
0.0345585
0.0288671
0.0218237
0.0105517
0.011591
0.023535
0.0310388
0.0370287
0.0423166
0.0484381
0.0429765
0.0366933
0.0285334
0.0141337
0.0164715
0.033014
0.0415176
0.0476592
0.0529254
0.0540143
0.0488481
0.0425156
0.0336104
0.0163845
0.0149975
0.0308015
0.0399012
0.0468446
0.0527975
0.0515124
0.0452335
0.0382365
0.0294106
0.0143135
0.0144177
0.0296857
0.0382633
0.0449604
0.0509743
0.0491664
0.0436554
0.0373673
0.0291381
0.0142749
0.0131412
0.0269759
0.034552
0.0402819
0.0452234
0.0394099
0.035101
0.0300363
0.0233648
0.0108014
0.00911168
0.019882
0.0264359
0.0316163
0.0361398
0.0398731
0.0355904
0.0305415
0.02376
0.011624
0.011468
0.0231057
0.0294595
0.0340979
0.0379302
0.0419405
0.0380422
0.0332247
0.026412
0.0133167
0.0143513
0.0284468
0.0356412
0.0406668
0.0446909
0.0447807
0.0406435
0.0353209
0.0277369
0.013492
0.0138628
0.0287993
0.0366
0.0420656
0.0463105
0.0516773
0.0472209
0.041625
0.033492
0.0166591
0.0162618
0.033077
0.0412032
0.0468251
0.0513269
0.0455438
0.0412254
0.0358287
0.0282101
0.0133375
0.0128064
0.0273108
0.0347318
0.0399883
0.0441869
0.0455193
0.0413454
0.0361952
0.0288902
0.0141294
0.0139703
0.0282342
0.0352623
0.0402027
0.0442052
0.0412711
0.0370776
0.0319554
0.0248928
0.0117048
0.0140238
0.0277831
0.0346503
0.0395682
0.0436596
0.0388876
0.0348219
0.0298749
0.0231287
0.0111511
0.0127517
0.0251325
0.0315766
0.0363507
0.0404593
0.034742
0.0309248
0.0263526
0.0202651
0.00996756
0.0108028
0.0213574
0.0271492
0.0316004
0.0355598
0.0300934
0.0265859
0.0224922
0.0171908
0.00854351
0.0091084
0.0180555
0.0231148
0.0271027
0.03073
0.0262189
0.0228571
0.0191539
0.0145009
0.00719589
0.00783082
0.0156919
0.0204404
0.0242531
0.0276925
0.0313282
0.0271689
0.022505
0.0168473
0.00795669
0.0108071
0.0217383
0.0278419
0.0326215
0.036806
0.0348102
0.0306095
0.0257816
0.019906
0.010273
0.0149911
0.0264951
0.0331377
0.0380389
0.0404973
0.0461348
0.042875
0.0387704
0.0321239
0.0200698
0.0391329
0.0466797
0.0479099
0.0481322
0.0474903
0.0547452
0.0517735
0.0476596
0.0421275
0.033582
0.0342837
0.0453809
0.0548087
0.0619972
0.0649272
0.0703129
0.0650463
0.0553036
0.0437116
0.0320395
0.0327281
0.0486924
0.0650327
0.0750915
0.0804477
0.0834205
0.07575
0.0637507
0.0483216
0.0287857
0.030929
0.0527673
0.069243
0.0817265
0.0918986
0.099133
0.0921885
0.082996
0.0668005
0.0357141
0.049601
0.0858319
0.102919
0.112018
0.116995
0.111981
0.103628
0.0934063
0.0769846
0.0418924
0.0334248
0.0689204
0.0842139
0.0947924
0.103171
0.108226
0.09882
0.088159
0.0732958
0.0287592
0.0263633
0.0681365
0.0834155
0.0947989
0.10551
0.128063
0.118368
0.10389
0.0820869
0.0370013
0.0424915
0.0857668
0.109587
0.126275
0.137895
0.148709
0.137143
0.119005
0.0931342
0.0474468
0.0483345
0.0969734
0.125572
0.144982
0.156384
0.166786
0.159149
0.143054
0.115189
0.057744
0.0573568
0.115147
0.144247
0.161684
0.170418
0.169784
0.157365
0.138476
0.109601
0.0547243
0.0519047
0.104491
0.133515
0.153989
0.169654
0.119246
0.113038
0.104191
0.0873427
0.0457067
0.0437161
0.0879696
0.108535
0.121086
0.130106
0.13233
0.120163
0.104696
0.0822212
0.0364695
0.0113278
0.023592
0.0314641
0.037585
0.0426496
0.0417444
0.0365706
0.0306686
0.0232248
0.0110738
0.0120713
0.0248973
0.0328952
0.0392285
0.0447201
0.0511498
0.0454601
0.0388755
0.0302632
0.0147878
0.0173024
0.0350082
0.0437998
0.0500556
0.0554688
0.0558632
0.0506557
0.0442747
0.0352242
0.0170949
0.0155064
0.0315773
0.0407181
0.0476218
0.0535074
0.0508978
0.0447836
0.0379403
0.0293347
0.0145458
0.0140749
0.0285821
0.0367722
0.043205
0.0489989
0.047111
0.0417036
0.0355904
0.0276801
0.0135434
0.0123711
0.0257783
0.0332269
0.0389474
0.0439356
0.0384093
0.0339835
0.0289213
0.0224062
0.0103741
0.007997
0.0181117
0.0246247
0.0299917
0.0348207
0.0391183
0.0344906
0.0291933
0.0222798
0.0107957
0.0125967
0.0253434
0.0323394
0.0374247
0.04172
0.0432127
0.0391063
0.0341098
0.0270943
0.0136994
0.0149761
0.0293639
0.0366615
0.0417335
0.0458111
0.047545
0.0434247
0.0382459
0.0307172
0.0156061
0.0147003
0.0294023
0.0368402
0.0420202
0.046154
0.0464173
0.042236
0.0369895
0.0294649
0.0145582
0.0140204
0.0292084
0.0370567
0.0425674
0.0468765
0.0466674
0.042413
0.0369873
0.0292434
0.0140397
0.0155584
0.0320268
0.0400167
0.0455746
0.0500452
0.0481757
0.0438072
0.0383941
0.0306444
0.0147584
0.0122705
0.0262412
0.0333984
0.0384633
0.0424952
0.0407622
0.0369234
0.0320761
0.0252054
0.0118016
0.0137636
0.0274951
0.0342275
0.038938
0.0427433
0.0395852
0.0356051
0.0307142
0.0239418
0.0113832
0.013715
0.026846
0.0333971
0.0380793
0.041968
0.0371006
0.0332554
0.0285556
0.0221318
0.0108346
0.0123046
0.0240034
0.0301392
0.0346988
0.038626
0.0329229
0.0292886
0.0249353
0.0191657
0.00957434
0.010256
0.0201486
0.0256619
0.0299349
0.033745
0.0284574
0.0251137
0.0212255
0.0162173
0.00818839
0.00875908
0.0170057
0.021784
0.0256026
0.0290969
0.0247101
0.0214565
0.0179295
0.0135503
0.00692683
0.0070727
0.0143471
0.0188938
0.0226785
0.0261046
0.0300918
0.0262118
0.0217848
0.0163403
0.00759789
0.0112557
0.0220028
0.0276206
0.0318716
0.0355118
0.0337671
0.0298575
0.0254589
0.0199722
0.0105727
0.014723
0.0263695
0.0333363
0.0380672
0.0398391
0.0475873
0.0465961
0.0432379
0.035401
0.0222453
0.0374448
0.0455675
0.0475636
0.0481026
0.0468801
0.0496643
0.0473154
0.0447209
0.0409484
0.0335413
0.0282799
0.0380247
0.0431465
0.0480664
0.0538646
0.0603773
0.0542217
0.0475413
0.0413161
0.0302243
0.0292379
0.0435059
0.0511435
0.059166
0.0671449
0.0749339
0.0669721
0.0567544
0.0452458
0.0309268
0.0315132
0.0487621
0.0649236
0.0769782
0.0865001
0.107722
0.103821
0.0959955
0.0829266
0.0526835
0.0530085
0.0862612
0.100268
0.108163
0.11216
0.125165
0.115167
0.102324
0.0828111
0.0494618
0.0431479
0.074217
0.0967322
0.11359
0.126482
0.111116
0.0982337
0.0819401
0.0599665
0.0313136
0.0266874
0.0604374
0.0800355
0.0939139
0.104647
0.109251
0.097549
0.083885
0.065706
0.0313948
0.0307074
0.0708454
0.0889515
0.102856
0.114691
0.101801
0.0896536
0.0755364
0.0577141
0.0249744
0.0336567
0.0692112
0.0899147
0.105297
0.117065
0.12401
0.110238
0.0919587
0.0686796
0.0347654
0.0356407
0.0708516
0.0964885
0.115345
0.127872
0.124664
0.112451
0.0941371
0.0688577
0.0335729
0.0465853
0.0938496
0.123169
0.142415
0.15449
0.151435
0.136317
0.116773
0.0887051
0.0439961
0.0431697
0.0869206
0.114599
0.136245
0.155904
0.164491
0.143848
0.121105
0.0923525
0.0466064
0.0511804
0.10427
0.134931
0.15719
0.174643
0.181196
0.160767
0.135511
0.102603
0.0489572
0.0441771
0.0973277
0.130405
0.156223
0.177713
0.122048
0.106998
0.0922481
0.0746736
0.0384261
0.0154158
0.0269369
0.0356339
0.0412246
0.0462914
0.045068
0.0397148
0.0335379
0.0255486
0.0118455
0.0126474
0.0267414
0.0353762
0.0421538
0.0479078
0.0540048
0.0479952
0.0411463
0.0320934
0.0153934
0.0175662
0.0360172
0.0449235
0.0513162
0.0570171
0.0566135
0.0510247
0.0444177
0.0352247
0.0171027
0.0161323
0.0322026
0.0413111
0.0481687
0.0540459
0.0507507
0.0450563
0.0387461
0.0306327
0.015593
0.0147043
0.02866
0.0363197
0.0422379
0.0475369
0.0447195
0.0397191
0.03401
0.0265673
0.0132637
0.0117366
0.0243058
0.0313583
0.0368095
0.0415652
0.0366397
0.0322074
0.0272382
0.0209378
0.00960075
0.00718844
0.0166464
0.0217392
0.0258187
0.0293733
0.0251911
0.0217069
0.0178831
0.0133132
0.00588199
0.00625252
0.0140432
0.0191218
0.023322
0.0269257
0.0301515
0.0265955
0.0222559
0.016708
0.00812506
0.0094493
0.0189356
0.0248244
0.0292127
0.0326744
0.0344153
0.0310641
0.0266748
0.0205766
0.0103701
0.0139037
0.0276065
0.0346405
0.0395675
0.0435838
0.0451716
0.041234
0.0363099
0.0291364
0.0147683
0.01528
0.0301318
0.0374154
0.0423688
0.0462972
0.0483957
0.0442329
0.0389806
0.0313195
0.0157872
0.0156517
0.0313606
0.0390336
0.0442787
0.0484211
0.0457781
0.0416141
0.0363854
0.0289035
0.0140791
0.0133744
0.0278928
0.0352242
0.0403603
0.0444482
0.0458959
0.0418149
0.0365951
0.0290829
0.0140254
0.0138219
0.02854
0.0357458
0.040706
0.044563
0.0460844
0.041898
0.0367088
0.0292759
0.0140578
0.0134471
0.0279487
0.0350148
0.0399275
0.0438802
0.0391449
0.0355026
0.0308765
0.0242883
0.0114155
0.0135516
0.0267817
0.0332166
0.0376825
0.0412617
0.0381672
0.0344256
0.0297746
0.0232723
0.0111657
0.0135258
0.0261739
0.0324331
0.0368672
0.0405173
0.0358131
0.0322157
0.0277611
0.0216037
0.0106982
0.0121507
0.0234143
0.0292837
0.0336108
0.0373059
0.0317763
0.0283574
0.0242153
0.0186791
0.0094425
0.0100771
0.0196069
0.0248962
0.028986
0.0326149
0.0274369
0.0242658
0.0205527
0.0157484
0.00801724
0.00851857
0.0163774
0.0209734
0.0246632
0.0280391
0.0236095
0.0204932
0.0170978
0.0129205
0.00666601
0.00650548
0.0133409
0.0177175
0.0214243
0.0247839
0.0282182
0.0244764
0.0202668
0.0151888
0.00705759
0.0107308
0.0206258
0.0256791
0.0295774
0.0329519
0.0313402
0.0276685
0.0237957
0.0189681
0.0101215
0.0135254
0.0251259
0.0323964
0.0365695
0.0376784
0.0438753
0.0439785
0.0385206
0.0315591
0.0218679
0.0359546
0.0431012
0.0451746
0.0461447
0.0445864
0.057442
0.0540012
0.0509509
0.0468163
0.0358791
0.0338616
0.0459449
0.0532897
0.059522
0.0677936
0.0735098
0.0630264
0.053779
0.0446518
0.0304817
0.0251416
0.0420454
0.0483288
0.0542298
0.0615898
0.0923208
0.0873948
0.0811805
0.0726778
0.0423619
0.0472681
0.0737846
0.0842185
0.0906938
0.0943304
0.0985115
0.0950046
0.0885007
0.0777687
0.0500962
0.0502779
0.0837185
0.102523
0.11466
0.123852
0.124427
0.115424
0.103276
0.0842343
0.051256
0.0743695
0.117342
0.135236
0.145012
0.150346
0.148224
0.13955
0.126591
0.106102
0.0655469
0.0503591
0.0869634
0.110955
0.12859
0.141278
0.115499
0.099762
0.0820827
0.0607146
0.0292234
0.0243189
0.056824
0.0797009
0.0978666
0.113032
0.0960538
0.0839734
0.0690184
0.050005
0.0210944
0.0213865
0.0454777
0.0643249
0.078742
0.0914925
0.108065
0.0968422
0.0841938
0.0673351
0.0321496
0.0256609
0.0548787
0.071489
0.0839049
0.094022
0.102892
0.0922907
0.0776141
0.0587075
0.0267452
0.0247362
0.0562927
0.0783842
0.0934705
0.10124
0.0932353
0.0810497
0.0669853
0.0489103
0.0218057
0.0229101
0.0492425
0.0690835
0.0873283
0.105071
0.126926
0.11135
0.092639
0.06797
0.0324661
0.0354957
0.0737528
0.0992298
0.11959
0.139612
0.154807
0.1337
0.111338
0.0839858
0.0419431
0.0486441
0.0926692
0.120099
0.141972
0.161461
0.169985
0.149927
0.126841
0.0974073
0.0503868
0.0496597
0.0951489
0.123956
0.146257
0.165209
0.147431
0.131535
0.114585
0.0900655
0.0455207
0.0374564
0.084299
0.108334
0.128615
0.149334
0.12174
0.107262
0.0921658
0.074112
0.0420831
0.0213047
0.0341847
0.0424893
0.0480952
0.0531748
0.0495037
0.0439635
0.0371526
0.0284327
0.0126504
0.0131244
0.028568
0.0377964
0.0450414
0.0511282
0.05658
0.0501588
0.0429347
0.0335871
0.0158125
0.0173541
0.0358684
0.0449369
0.0517099
0.0578318
0.0571801
0.0511563
0.04416
0.0346368
0.0173125
0.0173736
0.0338486
0.0427958
0.0494282
0.055179
0.051679
0.0465659
0.040884
0.0333122
0.0174875
0.0163131
0.0304408
0.0375276
0.0427998
0.047411
0.0433196
0.0390307
0.0339586
0.0270787
0.0141791
0.0122009
0.0241425
0.0306707
0.0354933
0.0395132
0.0349982
0.0312614
0.0268554
0.0209978
0.0102641
0.00775184
0.0168584
0.0217817
0.0256391
0.0290039
0.0247916
0.0209868
0.0170236
0.0125047
0.00542693
0.00614078
0.0133691
0.0181657
0.0223035
0.0262035
0.0272613
0.0237248
0.0197948
0.0149754
0.00710627
0.00801773
0.0165084
0.0215936
0.0256104
0.0291559
0.0304747
0.0269544
0.0228938
0.0176263
0.0086668
0.00897619
0.0182474
0.0236198
0.0276922
0.0311838
0.0354854
0.0322329
0.0278577
0.0216256
0.0108796
0.0111381
0.0222806
0.0285666
0.0328986
0.036063
0.0363431
0.0332522
0.0289874
0.022715
0.0112245
0.0155539
0.0307274
0.0380514
0.0430054
0.0469207
0.046824
0.0429576
0.0380819
0.0308452
0.0155731
0.0152406
0.0308736
0.0384237
0.0435648
0.0476107
0.0459593
0.0420556
0.0371067
0.0298233
0.0145358
0.0125795
0.0266696
0.0337716
0.0387445
0.0426868
0.0405019
0.0367688
0.0320524
0.0253011
0.011777
0.0134837
0.0276797
0.0345115
0.0391674
0.0427653
0.0403975
0.0370596
0.032741
0.0263734
0.0130061
0.0127744
0.0264043
0.0330492
0.0376615
0.0413775
0.0374283
0.0339861
0.0295851
0.0232981
0.0110106
0.0133086
0.0260261
0.0321482
0.0363524
0.0396868
0.0369322
0.0334341
0.0290229
0.0227746
0.0110079
0.0134513
0.0257404
0.0317275
0.0359046
0.0392909
0.0349785
0.0316311
0.0274034
0.0214534
0.0107085
0.0122739
0.0233299
0.0289775
0.0330649
0.0364929
0.0312408
0.0280536
0.0241078
0.0187258
0.00956117
0.0102148
0.0196099
0.0247343
0.0286399
0.032059
0.0268688
0.0238911
0.020332
0.0156623
0.00805219
0.00849144
0.0161304
0.0205845
0.0241348
0.0273594
0.0227341
0.019861
0.0166448
0.0126356
0.00662285
0.0063217
0.0126243
0.0166929
0.0201742
0.0233798
0.025426
0.0217218
0.0176597
0.0129879
0.00617138
0.00938706
0.0179036
0.0224606
0.0261351
0.0293587
0.0278308
0.0243318
0.0208849
0.0167919
0.0090342
0.0148899
0.0251702
0.0302615
0.0330756
0.0343263
0.0397675
0.040392
0.0362926
0.0296167
0.0227734
0.0435314
0.0511593
0.050298
0.0488304
0.0455919
0.0743079
0.0699622
0.0656485
0.0589366
0.043622
0.041004
0.0567165
0.0696984
0.0799816
0.0900787
0.0926921
0.0803694
0.0670799
0.05268
0.0378092
0.0397537
0.0659682
0.0844872
0.0987236
0.109657
0.0981196
0.0883621
0.0766671
0.0629233
0.0344801
0.0348593
0.0632086
0.0804504
0.0949923
0.109427
0.114326
0.103311
0.0914342
0.074944
0.0426647
0.0478277
0.0800242
0.0988056
0.111806
0.122265
0.153942
0.152224
0.144752
0.127602
0.0796331
0.0810812
0.127933
0.14438
0.151384
0.153267
0.160548
0.150237
0.136786
0.114079
0.0718988
0.0655543
0.102791
0.125604
0.141539
0.155502
0.151461
0.135524
0.117292
0.0930077
0.057403
0.0452027
0.0809004
0.10673
0.126257
0.142695
0.15008
0.136233
0.118228
0.0922633
0.0481281
0.0241623
0.0499934
0.0701711
0.0898394
0.106773
0.116415
0.104841
0.0949684
0.0765396
0.0366315
0.0252951
0.0522674
0.0729548
0.0857981
0.0942269
0.105229
0.0985615
0.0849645
0.0608837
0.0294788
0.0287199
0.0590373
0.0763842
0.0874059
0.0950425
0.0757739
0.0678152
0.0578727
0.0439472
0.0209808
0.0185605
0.0439519
0.061462
0.0742036
0.0829074
0.0887751
0.0760688
0.0642425
0.0507546
0.0243993
0.0252231
0.0554679
0.0729937
0.0884298
0.105759
0.121907
0.101436
0.0806818
0.0581809
0.0283555
0.0298683
0.0625609
0.0846229
0.104505
0.124961
0.142752
0.121803
0.100714
0.07666
0.038118
0.0459859
0.0879786
0.114013
0.135316
0.154847
0.156522
0.138354
0.117948
0.0919478
0.0506669
0.0509387
0.0925588
0.118934
0.139504
0.157391
0.15022
0.134621
0.115845
0.0902569
0.0496113
0.0451881
0.0900471
0.116234
0.13639
0.152662
0.140642
0.123456
0.104239
0.0797888
0.0360352
0.025022
0.0596601
0.0852392
0.111598
0.134829
0.129562
0.11441
0.0962257
0.0729301
0.0395904
0.027872
0.0442436
0.050539
0.0567454
0.0621256
0.0538585
0.0482192
0.0408564
0.0311681
0.0132121
0.0132877
0.0296673
0.0393437
0.046939
0.0532092
0.0587357
0.0518547
0.0441525
0.0345406
0.0161034
0.0172316
0.0357234
0.0449103
0.0521414
0.0587613
0.0580363
0.051625
0.0443598
0.0346744
0.0175669
0.0182786
0.0349593
0.0440882
0.050837
0.0566961
0.0535444
0.04853
0.0428638
0.0353409
0.0188366
0.0177066
0.0325072
0.0392543
0.0442393
0.0485381
0.0429267
0.0391156
0.0345688
0.0283165
0.0153197
0.0128179
0.0241702
0.0299528
0.0341262
0.0375601
0.0323888
0.0292082
0.0253574
0.0200745
0.0103803
0.00772704
0.0156221
0.0202029
0.0237457
0.0267874
0.022886
0.019285
0.0155134
0.0112324
0.00482288
0.00534358
0.0120993
0.0165988
0.0205324
0.0242547
0.0260921
0.0222652
0.0181545
0.0133179
0.00599994
0.00665334
0.0143234
0.0194437
0.0237638
0.0277276
0.0289537
0.0249263
0.0204688
0.0150935
0.00700888
0.00707838
0.0154025
0.0209153
0.025462
0.0295321
0.0295981
0.0255363
0.0209648
0.0154116
0.00703328
0.00907386
0.0185435
0.0239577
0.0280187
0.0314872
0.0315701
0.0280785
0.0240201
0.0186027
0.00900104
0.0086707
0.0182309
0.0237358
0.0279623
0.0316085
0.0363988
0.0332984
0.0290579
0.0228494
0.0110775
0.0105102
0.0223222
0.0285513
0.0329538
0.0362996
0.0457699
0.0419692
0.0372527
0.0302695
0.0151918
0.0140374
0.0287132
0.0353549
0.0399431
0.0437551
0.0435858
0.0398057
0.0350578
0.0281122
0.0134511
0.0118725
0.0254812
0.0320699
0.0366831
0.0404381
0.0375716
0.0340352
0.0296101
0.0233343
0.0108399
0.00904937
0.0194693
0.0251401
0.0293708
0.0329559
0.0368444
0.033608
0.0296022
0.0238477
0.0118954
0.0116036
0.0238773
0.0299444
0.0342281
0.0377809
0.034923
0.0316592
0.0275382
0.0216742
0.0103099
0.0128641
0.0248583
0.0305778
0.0344795
0.0375627
0.0354018
0.032121
0.0279576
0.0220095
0.010735
0.0133298
0.0252043
0.0308918
0.0348019
0.0379279
0.0341911
0.03107
0.0270551
0.0213041
0.0107177
0.0124782
0.0233863
0.0288192
0.0326653
0.0358228
0.0309094
0.027949
0.0241859
0.0189307
0.00975933
0.0104626
0.0197982
0.024775
0.0284944
0.0316903
0.0263827
0.023625
0.0202226
0.015673
0.0081482
0.00842708
0.0158887
0.0201803
0.0235606
0.0265946
0.0217516
0.0191703
0.0161714
0.0123611
0.00659135
0.0062986
0.0120359
0.0157213
0.018855
0.0217889
0.0223299
0.0188401
0.0151127
0.0109916
0.00549911
0.00800796
0.0151333
0.0191876
0.0225293
0.0254778
0.0242371
0.0208101
0.017674
0.0141634
0.00791051
0.0244456
0.0327976
0.030179
0.0302177
0.0309292
0.041215
0.0431282
0.0453313
0.04274
0.0311906
0.0521164
0.0649245
0.0628111
0.0576824
0.0517829
0.0919089
0.0838704
0.077616
0.0676323
0.0496679
0.0438954
0.0583551
0.0732666
0.0868673
0.100789
0.0930834
0.0785423
0.0645537
0.0498327
0.037086
0.0372572
0.0625731
0.0805614
0.0968187
0.110991
0.115055
0.0984005
0.0800091
0.0597721
0.0337995
0.0363153
0.062272
0.0822217
0.0984675
0.113008
0.139896
0.127578
0.111893
0.0899127
0.0513651
0.0611435
0.102757
0.122391
0.135501
0.145347
0.149791
0.144901
0.135451
0.117858
0.0725028
0.0661199
0.108139
0.13217
0.147237
0.158384
0.163089
0.15391
0.140157
0.1161
0.0714394
0.0830073
0.133442
0.158268