/*--------------------------------*- C++ -*----------------------------------*\
| =========                 |                                                 |
| \\      /  F ield         | OpenFOAM: The Open Source CFD Toolbox           |
|  \\    /   O peration     | Version:  2306                                  |
|   \\  /    A nd           | Website:  www.openfoam.com                      |
|    \\/     M anipulation  |                                                 |
\*---------------------------------------------------------------------------*/
FoamFile
{
    version     2.0;
    format      ascii;
    arch        "LSB;label=32;scalar=64";
    class       volScalarField;
    location    "4";
    object      nut;
}
// * * * * * * * * * * * * * * * * * * * * * * * * * * * * * * * * * * * * * //

dimensions      [0 2 -1 0 0 0 0];

internalField   nonuniform List<scalar> 
143976
(
0.00353033
0.00213509
0.00160486
0.00104563
0.000492527
5.78016e-05
5.77731e-05
0.000562669
0.00118072
0.0017656
0.002302
0.00256918
0.00200761
0.00137453
0.000676114
7.06188e-05
8.37755e-05
0.000815851
0.00167986
0.00247426
0.00319947
0.00294344
0.0022898
0.00156446
0.000769703
7.8038e-05
6.26748e-05
0.000546052
0.00116905
0.00180355
0.00241094
0.00263256
0.00201863
0.00134886
0.000645049
6.57935e-05
7.56614e-05
0.000758074
0.00161784
0.00243322
0.00317899
0.00258097
0.00195553
0.00128542
0.000604644
6.58309e-05
6.57089e-05
0.000664763
0.00141281
0.00211756
0.00276342
0.00218262
0.00164811
0.00108108
0.000508156
5.46309e-05
5.02715e-05
0.000520452
0.00112583
0.00171426
0.0022601
0.00196689
0.00150237
0.000993341
0.000462777
4.57994e-05
6.02831e-05
0.000548111
0.0011237
0.00165461
0.00212078
0.0018212
0.00136518
0.000887657
0.000415505
4.94353e-05
0.00297965
0.00332497
0.00232147
0.00178843
0.00120495
0.000583248
5.85084e-05
6.62799e-05
0.00058878
0.00121388
0.00179311
0.00231141
0.00276343
0.00214146
0.00145641
0.000712862
7.99143e-05
7.64855e-05
0.000710663
0.00145039
0.00212496
0.00273305
0.00320031
0.00247442
0.00167308
0.000808383
8.56644e-05
8.68978e-05
0.00082899
0.00175731
0.00265563
0.00349065
0.0036721
0.00282136
0.00189113
0.000901898
9.17891e-05
8.95222e-05
0.000898766
0.00186973
0.00277135
0.00360133
0.00319566
0.00247949
0.0016845
0.000820504
7.98028e-05
6.25001e-05
0.000582226
0.00124645
0.00191743
0.00256179
0.00278259
0.00212814
0.00141358
0.000671197
6.77577e-05
7.91485e-05
0.000788581
0.00169567
0.00256755
0.00336824
0.00291234
0.00220299
0.0014466
0.000678005
7.20341e-05
7.79286e-05
0.000785862
0.00167618
0.00254206
0.00334713
0.00361593
0.00276832
0.00183601
0.000851428
8.19706e-05
7.09493e-05
0.000699234
0.0014881
0.00225266
0.00295327
0.0031131
0.00238389
0.00158544
0.000738704
7.06221e-05
5.86949e-05
0.000572946
0.00122375
0.00186067
0.00245199
0.00247907
0.00187762
0.00122925
0.000564239
5.41592e-05
7.43755e-05
0.000716272
0.00148034
0.00219681
0.00286059
0.0026488
0.00203924
0.00137647
0.000667897
6.8762e-05
8.09013e-05
0.00073077
0.00143816
0.00208485
0.00269016
0.00235595
0.00182946
0.00125271
0.000627083
6.7354e-05
7.20806e-05
0.00062866
0.00126282
0.00184109
0.00235976
0.00272507
0.00209658
0.00140853
0.000676019
7.7498e-05
7.78937e-05
0.00067673
0.00145142
0.00221438
0.0029312
0.00305901
0.00233408
0.001551
0.000734469
8.13624e-05
8.33169e-05
0.000746537
0.00160691
0.00246452
0.00327998
0.00349609
0.00259129
0.00167847
0.000776329
8.8158e-05
8.88399e-05
0.000823975
0.00177566
0.00273518
0.00368241
0.00396568
0.00299831
0.00196882
0.000918155
9.30368e-05
9.88264e-05
0.000991015
0.00210422
0.00315671
0.00412188
0.00386871
0.00297012
0.00199725
0.000953615
9.33065e-05
7.92811e-05
0.0008112
0.00167169
0.00247402
0.00320243
0.00247965
0.00184538
0.00119195
0.000550728
5.76915e-05
6.42988e-05
0.000618682
0.00132237
0.00201775
0.00266511
0.0032136
0.00243532
0.00159601
0.000738188
7.46193e-05
7.30501e-05
0.000719201
0.00153587
0.00233883
0.00310206
0.00356103
0.00268569
0.00175942
0.000815722
7.93241e-05
8.5529e-05
0.000883853
0.0019211
0.00291747
0.003827
0.00402982
0.00306664
0.00201416
0.000921998
8.76232e-05
7.95582e-05
0.000813054
0.00174131
0.00264735
0.00348842
0.0037803
0.00288725
0.00190918
0.000880937
8.38194e-05
7.2585e-05
0.000717642
0.0015352
0.00233194
0.0030639
0.00322181
0.00245989
0.00163012
0.000755313
7.1979e-05
5.97473e-05
0.000573766
0.0012375
0.00189364
0.00250657
0.00254441
0.00192379
0.00125668
0.000574299
5.54051e-05
7.58569e-05
0.000722248
0.00149813
0.00223044
0.00291608
0.00295613
0.00226989
0.00155652
0.000785273
8.81666e-05
8.71678e-05
0.000777497
0.00152946
0.002218
0.0028747
0.00199954
0.00154232
0.00104444
0.000519924
5.97556e-05
4.45237e-05
0.000429108
0.000914335
0.00137695
0.00180847
0.00155076
0.00118043
0.000788394
0.000378145
3.97243e-05
3.60329e-05
0.000348136
0.000711326
0.0010555
0.00137298
0.00164406
0.00127834
0.000872631
0.000442701
5.17356e-05
5.12224e-05
0.000433327
0.000867833
0.00127701
0.00162878
0.0018386
0.0014376
0.000986809
0.000501249
5.7158e-05
0.00269743
0.00276756
0.00186546
0.00148211
0.00107664
0.000584556
7.34554e-05
5.96379e-05
0.00047921
0.000874088
0.00120985
0.00151798
0.00159066
0.00121666
0.000819886
0.000415016
5.34236e-05
7.27372e-05
0.00050645
0.00101447
0.00151643
0.00200512
0.00227947
0.00176647
0.00120382
0.000591188
7.07889e-05
7.60124e-05
0.000649297
0.00136757
0.00204978
0.00267503
0.00285892
0.00215544
0.00140846
0.000653703
7.6714e-05
7.89753e-05
0.000656584
0.0014327
0.00221809
0.00297312
0.00310943
0.00232377
0.00150349
0.000690949
8.08645e-05
8.61339e-05
0.000730877
0.00159538
0.00247055
0.00331735
0.00352558
0.00263308
0.00171397
0.000794093
9.13027e-05
9.41993e-05
0.000835715
0.0017858
0.00273912
0.00370571
0.00384576
0.00281942
0.00182173
0.000843685
9.34317e-05
9.49725e-05
0.000909813
0.00198416
0.00306917
0.00413241
0.00446587
0.0034024
0.0022439
0.00103937
0.000101207
0.000105535
0.0010657
0.00226479
0.00338453
0.00440385
0.00388265
0.00298168
0.00200639
0.000958218
9.22183e-05
7.22905e-05
0.000727766
0.00150683
0.00225072
0.0029337
0.0022926
0.00170002
0.00108881
0.000495016
5.03972e-05
5.46434e-05
0.000503302
0.00110228
0.00171936
0.00231851
0.00273922
0.00205244
0.00133088
0.000611262
6.29345e-05
6.81062e-05
0.00067704
0.00146598
0.00225152
0.00300875
0.00345658
0.00258393
0.0016753
0.000764738
7.40056e-05
8.09691e-05
0.000831852
0.00181976
0.00278702
0.00368117
0.00391935
0.00296327
0.00193031
0.000877432
8.34818e-05
8.08036e-05
0.0008451
0.00183029
0.00280271
0.00372276
0.00371035
0.00278765
0.00181648
0.000838441
8.00174e-05
8.79436e-05
0.000931611
0.00204019
0.00311136
0.00409734
0.0034718
0.00262749
0.00172011
0.000798624
7.93768e-05
8.39307e-05
0.000879604
0.00191033
0.00289413
0.00379762
0.00302792
0.00229505
0.00150328
0.000698817
7.25825e-05
7.17485e-05
0.000745425
0.0016124
0.0024379
0.00320071
0.00244831
0.00183865
0.00119335
0.00054921
5.94169e-05
5.51861e-05
0.000568327
0.0012454
0.00190746
0.00252515
0.00288831
0.00219939
0.00147329
0.000709517
7.48049e-05
8.7477e-05
0.000792282
0.00158206
0.0023139
0.00302015
0.00215698
0.00162637
0.00105675
0.000492632
6.19425e-05
5.04599e-05
0.000482751
0.00106906
0.00164056
0.00215015
0.00201354
0.0015374
0.00101349
0.000465472
4.82592e-05
5.17471e-05
0.000477326
0.00103804
0.00155778
0.00203867
0.00191343
0.00146522
0.000991105
0.000470785
4.93289e-05
4.33949e-05
0.000417908
0.000863808
0.00127645
0.00167208
0.00145878
0.00111965
0.000760925
0.00037598
3.85352e-05
0.00228252
0.00318314
0.00300012
0.00205228
0.00166252
0.00138663
0.000959291
0.000120644
0.000104216
0.000861305
0.00149346
0.00205062
0.00240795
0.00247645
0.00200155
0.00144875
0.00081894
0.000101002
7.46594e-05
0.000557177
0.00117667
0.00180056
0.00240215
0.0026222
0.00195634
0.00127179
0.000599692
7.52864e-05
7.70778e-05
0.000611786
0.00131214
0.00203404
0.00274419
0.00282848
0.00209313
0.00135
0.000628504
7.9663e-05
8.23794e-05
0.000673151
0.00147412
0.00228963
0.00308039
0.00318279
0.00236871
0.00153076
0.000703254
8.54681e-05
8.72036e-05
0.000723546
0.0015655
0.00241526
0.00324225
0.00367417
0.00275615
0.00180418
0.000843221
9.46678e-05
9.87728e-05
0.000890848
0.00189048
0.0028901
0.00389679
0.00402614
0.00295319
0.00190821
0.000884634
9.8144e-05
9.79405e-05
0.000920562
0.00201496
0.00312636
0.00423767
0.00459481
0.00347418
0.00226982
0.00104223
0.000102325
0.00010762
0.00109862
0.00236451
0.00355956
0.00464487
0.00431019
0.00332665
0.00224656
0.00107478
0.000108201
8.71936e-05
0.000884486
0.00181538
0.00268066
0.00347372
0.00281261
0.00207992
0.00134174
0.000623078
6.6877e-05
8.22728e-05
0.000789815
0.00169221
0.00258135
0.00343586
0.0027016
0.00199907
0.00127894
0.000576597
5.79595e-05
6.31173e-05
0.000650173
0.00145862
0.0022917
0.00310292
0.00318432
0.00238366
0.0015393
0.000698734
6.88869e-05
7.17012e-05
0.000746633
0.00165561
0.00257065
0.00343872
0.00363917
0.00271486
0.00175524
0.000798181
7.55148e-05
7.46947e-05
0.000800271
0.00175906
0.0027249
0.00365977
0.00402858
0.0030431
0.00198032
0.00089759
8.417e-05
8.41219e-05
0.0008992
0.00199025
0.00306218
0.00405866
0.0035991
0.00269492
0.00174645
0.000801566
7.86048e-05
8.73204e-05
0.000919639
0.00201834
0.00308283
0.0040683
0.00335404
0.00252211
0.00163825
0.000754405
7.84121e-05
8.27794e-05
0.000855702
0.00185968
0.00282137
0.00371073
0.00290166
0.00218777
0.00142433
0.000658378
7.16169e-05
7.05509e-05
0.000721291
0.00155908
0.00235846
0.00310174
0.0023312
0.00173956
0.00112061
0.000512361
5.83826e-05
5.44068e-05
0.000557529
0.00122366
0.00187273
0.00247569
0.00284563
0.00216003
0.00144334
0.000694383
7.27668e-05
8.6832e-05
0.000806115
0.00161839
0.00237035
0.00308848
0.00223321
0.00169035
0.00108965
0.000506013
6.35615e-05
5.23786e-05
0.000489485
0.00110225
0.00172218
0.00225519
0.00214655
0.00162447
0.00102184
0.000455303
5.33378e-05
5.24743e-05
0.000467195
0.00103869
0.00159149
0.00209133
0.00276864
0.00221454
0.00163168
0.000861041
9.69356e-05
8.37958e-05
0.0004836
0.00114612
0.00174775
0.00267578
0.00236446
0.00171679
0.00115471
0.000592268
8.01677e-05
9.8312e-05
0.000512265
0.000923435
0.00140353
0.00207043
0.00229573
0.00166505
0.00121602
0.000625302
0.000114547
0.000114622
0.000751016
0.00123534
0.00171472
0.00231803
0.00205351
0.00156798
0.00121523
0.000659464
9.20459e-05
0.000195128
0.00124819
0.00161302
0.0020457
0.00259389
0.00258276
0.00203521
0.00140667
0.000788349
0.000171897
0.000135184
0.000716718
0.00131159
0.00192408
0.00253181
0.00252377
0.00196156
0.00135139
0.000704797
8.34835e-05
7.8305e-05
0.000646735
0.00129607
0.00195061
0.00258506
0.00270152
0.00201043
0.0012981
0.000616486
7.69725e-05
7.89063e-05
0.000622273
0.00133964
0.00208358
0.00279433
0.00288699
0.00214077
0.00138852
0.000651494
8.18812e-05
8.29628e-05
0.000662175
0.00140172
0.00215469
0.00290485
0.0029011
0.00214922
0.0013989
0.000664655
8.36917e-05
8.83323e-05
0.000734301
0.00158411
0.00244128
0.00327587
0.00379396
0.00286005
0.00187706
0.000877974
9.71283e-05
0.000103005
0.000947328
0.00200414
0.00305408
0.00408941
0.00421856
0.00311706
0.00202678
0.000947792
0.000102092
9.98094e-05
0.000935455
0.00205272
0.00318431
0.00431615
0.00455232
0.00340819
0.00220691
0.00100451
0.000101585
0.000105731
0.00107471
0.00233512
0.00354522
0.00465381
0.00443864
0.00341179
0.00228189
0.00107144
0.000106566
9.52151e-05
0.000951481
0.00196723
0.0029081
0.00378373
0.00274263
0.00210514
0.00141651
0.000696305
7.12977e-05
4.88386e-05
0.000467246
0.00102239
0.00159294
0.00214495
0.00219679
0.0016156
0.00102907
0.000473308
5.67351e-05
6.58975e-05
0.000571298
0.00124835
0.00194171
0.00261027
0.00305183
0.00228125
0.00146953
0.000669047
7.20432e-05
9.07151e-05
0.000902368
0.00196122
0.00300484
0.00400114
0.0043108
0.00323623
0.00210693
0.000962618
9.42774e-05
6.48998e-05
0.000684139
0.00154112
0.00242776
0.00329289
0.00334815
0.00246641
0.00156469
0.00069469
6.45954e-05
7.2753e-05
0.000773336
0.00172003
0.00267303
0.00357681
0.00363519
0.00271672
0.00174719
0.000783543
7.29645e-05
7.30259e-05
0.000781223
0.00171525
0.00266114
0.00358113
0.00345301
0.00256248
0.00164848
0.000750551
7.12418e-05
8.36577e-05
0.000890268
0.00197769
0.00304718
0.00404432
0.00346063
0.00257397
0.00165306
0.000751018
7.7318e-05
8.60422e-05
0.000894654
0.00196693
0.00300799
0.00397585
0.00317073
0.00236712
0.00152376
0.000695587
7.6859e-05
8.07719e-05
0.000816943
0.001773
0.00269245
0.00354985
0.00271815
0.00203768
0.00131817
0.000606411
7.00775e-05
6.88103e-05
0.000687615
0.00147999
0.00223674
0.002945
0.00218274
0.00162179
0.0010414
0.000476427
5.72466e-05
5.36335e-05
0.000541786
0.0011864
0.00180972
0.00238857
0.00278975
0.00211949
0.00141645
0.00067845
7.14138e-05
8.79263e-05
0.000827369
0.00166064
0.00242133
0.00313536
0.00228378
0.00174903
0.00113021
0.000527836
6.57582e-05
5.40967e-05
0.000502022
0.00113744
0.00178531
0.00231169
0.0021815
0.001653
0.00101141
0.000458288
5.58413e-05
0.000124989
0.00110023
0.00198357
0.00245404
0.00264416
0.00277072
0.00249084
0.00201998
0.00110177
0.00011806
0.000159896
0.00103017
0.00189152
0.00248377
0.00292052
0.00281472
0.00239407
0.00172542
0.000940345
0.000142902
0.000111922
0.000772909
0.00111714
0.00154497
0.00213445
0.00257678
0.00206876
0.00152943
0.000883417
0.000133714
0.000125742
0.000772663
0.00134716
0.00183401
0.00238748
0.00281648
0.00225553
0.00168874
0.000921787
0.000106873
9.73514e-05
0.000782855
0.0014272
0.00196768
0.00251726
0.00239775
0.00172775
0.00112877
0.000618075
9.00919e-05
0.000130461
0.00133642
0.00247578
0.00336921
0.00401926
0.00526182
0.00442547
0.00333285
0.001814
0.000196815
0.000205203
0.00184959
0.00349056
0.00479617
0.00584211
0.0063216
0.00518047
0.00370584
0.00188026
0.000199326
0.000122279
0.000798675
0.00150007
0.0021724
0.00279453
0.0034414
0.00272949
0.00194441
0.00103611
0.00013715
0.000153038
0.00122911
0.00231621
0.00322279
0.00403139
0.00439779
0.00355819
0.0025695
0.00134878
0.000161641
8.02994e-05
0.000640776
0.00136393
0.00210625
0.00281703
0.00278961
0.00208136
0.00134657
0.00063256
8.1163e-05
8.20919e-05
0.000597811
0.00131861
0.00206592
0.00277318
0.00291711
0.00216194
0.00141074
0.000675112
8.51598e-05
8.99032e-05
0.00074999
0.00161254
0.00248022
0.00332262
0.00391685
0.00296213
0.0019465
0.000913934
9.97942e-05
0.000107273
0.00100885
0.00212892
0.00323862
0.00432059
0.0044739
0.00331925
0.00216847
0.00102449
0.000105897
0.000101663
0.000976754
0.00214175
0.00330816
0.00446076
0.00446099
0.0033442
0.0021661
0.000980323
0.000100466
0.000102243
0.00103064
0.00224614
0.00342111
0.00450305
0.00436689
0.00335426
0.00223586
0.00104268
0.000103824
0.000102616
0.000999773
0.00206301
0.00302949
0.00390804
0.00304275
0.00234925
0.00159566
0.000786448
8.06416e-05
6.17193e-05
0.000555409
0.00118643
0.00183665
0.00249045
0.00295872
0.00220893
0.00144077
0.000673067
7.30115e-05
5.59858e-05
0.00054229
0.00119934
0.00187097
0.00252188
0.00295261
0.00217601
0.00138096
0.000613559
6.14851e-05
6.43912e-05
0.000656834
0.00149145
0.00236259
0.00321758
0.00334255
0.00250452
0.00161608
0.000734772
7.51581e-05
7.63654e-05
0.000778034
0.00171359
0.00265246
0.00353357
0.00445841
0.00334608
0.00217618
0.000991658
9.49536e-05
9.39488e-05
0.000995542
0.00218398
0.00335897
0.00447863
0.00332899
0.00245376
0.00155701
0.000691841
6.33726e-05
6.21214e-05
0.000682435
0.00153246
0.00241111
0.00326458
0.00364707
0.00272686
0.00175311
0.000783969
7.29125e-05
7.26554e-05
0.000778332
0.00174604
0.00271708
0.00363196
0.00334194
0.00247261
0.00158295
0.000716481
7.0163e-05
8.28726e-05
0.000874875
0.00194927
0.00300524
0.00398879
0.00331447
0.00245338
0.00156465
0.000705333
7.6029e-05
8.44521e-05
0.000866629
0.00190765
0.00291877
0.00386055
0.00298241
0.00221404
0.00141475
0.000641562
7.51567e-05
7.84091e-05
0.00077454
0.00167622
0.00254617
0.00336397
0.0025206
0.00188097
0.00121141
0.000556612
6.82853e-05
6.69195e-05
0.000648061
0.00138433
0.00208751
0.0027517
0.00201003
0.00148655
0.000956009
0.000441474
5.59224e-05
5.22357e-05
0.000513418
0.00111732
0.00169859
0.00224486
0.00270611
0.00206447
0.00138588
0.000665819
7.00067e-05
9.03671e-05
0.000844083
0.00168966
0.0024432
0.00313709
0.00227081
0.00174711
0.00113223
0.00052764
6.78983e-05
5.57554e-05
0.000506717
0.00113446
0.00177397
0.00228883
0.0020219
0.00154729
0.000996576
0.000473781
5.72904e-05
0.000130595
0.000996389
0.00170614
0.00210162
0.00234049
0.00169809
0.00138483
0.0010054
0.000568161
0.00015614
0.000153025
0.000729502
0.00144927
0.00193179
0.0022869
0.00194755
0.00152489
0.00103228
0.000501494
0.000127325
0.000132385
0.000669871
0.00142503
0.00202979
0.00255129
0.00281314
0.0022377
0.00155199
0.000760343
0.00012392
9.51134e-05
0.000615125
0.00134308
0.00205743
0.00271393
0.00283683
0.00228235
0.00165453
0.000824486
0.000101814
0.000140957
0.00115589
0.00236916
0.00328365
0.00393138
0.00352441
0.00292315
0.00212083
0.0010586
0.000130176
0.000111633
0.000943173
0.00181183
0.00256532
0.00323313
0.00325305
0.00253555
0.00174443
0.000922914
9.79487e-05
0.000101811
0.000934807
0.00176642
0.00258832
0.00336881
0.00458884
0.00375482
0.00272465
0.00145132
0.000148008
0.000174042
0.0015607
0.0030304
0.00425562
0.00527839
0.00570429
0.00462983
0.00324724
0.00162648
0.000186567
0.000185193
0.00159291
0.00317726
0.00449959
0.0055464
0.00656018
0.00539877
0.00381038
0.00190014
0.000200398
0.000198422
0.00184675
0.00370111
0.00528674
0.00651139
0.0064443
0.0051102
0.00355035
0.0017725
0.000195635
0.000192503
0.00175141
0.00352813
0.0050828
0.00643466
0.00459182
0.00375619
0.00271778
0.00141864
0.000166152
0.000167587
0.00147681
0.00283031
0.00392558
0.0048253
0.00455559
0.00361843
0.0025877
0.0013892
0.000156907
9.14272e-05
0.000570197
0.0013416
0.0021162
0.00283703
0.00297152
0.00221107
0.00145282
0.00070338
8.77123e-05
9.21041e-05
0.000775373
0.00165709
0.0025389
0.00338965
0.00403938
0.00305674
0.00200831
0.000947457
0.00010243
0.000110152
0.00104739
0.00220786
0.00337483
0.00451719
0.00469176
0.00348585
0.00226937
0.00106666
0.000108279
0.000103819
0.0010201
0.00225441
0.00345804
0.00462181
0.00451091
0.00340831
0.00221952
0.00100141
0.000101516
0.000100465
0.00100452
0.00218847
0.0033233
0.00435978
0.00416076
0.00320348
0.00213899
0.000999051
0.000100066
9.83203e-05
0.000968881
0.00200451
0.00294136
0.00377966
0.00302027
0.00235105
0.00161654
0.000807765
8.34393e-05
6.70142e-05
0.000559976
0.00117523
0.00181502
0.00246693
0.00300218
0.00224363
0.00147137
0.000696734
8.3392e-05
9.15829e-05
0.000805231
0.00170845
0.00259641
0.00344873
0.00342954
0.002557
0.00165667
0.000761466
8.0734e-05
8.50589e-05
0.000822288
0.00180896
0.00280653
0.00377393
0.00400548
0.00297646
0.00191386
0.000864579
8.71185e-05
6.54019e-05
0.000680684
0.00155063
0.00246177
0.0033584
0.00340184
0.00249264
0.00156953
0.000689041
6.5201e-05
7.69774e-05
0.000803093
0.00177567
0.0027509
0.0036672
0.0037509
0.00281568
0.0018179
0.00081999
7.71863e-05
9.1872e-05
0.000983284
0.00215444
0.00331434
0.00442297
0.00431398
0.00322998
0.00209968
0.000960164
8.94523e-05
6.08287e-05
0.000667613
0.0014968
0.00235173
0.00317788
0.00308816
0.00229014
0.00145972
0.000651918
5.96836e-05
7.22493e-05
0.00077023
0.00173192
0.00269475
0.00359853
0.00324328
0.00239761
0.00153137
0.000690795
6.92943e-05
8.20978e-05
0.000860187
0.00191968
0.00295793
0.0039208
0.00320129
0.00236744
0.00150559
0.000675912
7.50802e-05
8.31678e-05
0.000845384
0.00186285
0.00284873
0.00376424
0.00285423
0.00211639
0.00134788
0.000608587
7.38666e-05
7.66152e-05
0.000747665
0.00161511
0.0024502
0.00323551
0.00238253
0.001778
0.00114544
0.000527075
6.69765e-05
6.58118e-05
0.000615799
0.00130607
0.00196536
0.00259358
0.00186087
0.00136589
0.000873103
0.000402822
5.49995e-05
4.99457e-05
0.000481334
0.00103972
0.00158562
0.00210436
0.00260215
0.00199911
0.00135395
0.000658777
6.81085e-05
9.22592e-05
0.000847768
0.00167605
0.00239931
0.00305171
0.00225128
0.00174312
0.00114239
0.000538196
6.93269e-05
5.67875e-05
0.000521754
0.00114862
0.00178777
0.00230204
0.00163869
0.00127054
0.000909425
0.00047862
6.21219e-05
0.0001295
0.000768334
0.00121442
0.00155319
0.00187374
0.0014236
0.00109452
0.000815279
0.000500659
0.000159874
0.000132908
0.000393742
0.000664307
0.000963847
0.00134503
0.00154556
0.0011624
0.000789422
0.000447798
0.000127679
9.20204e-05
0.000399832
0.000750379
0.00114648
0.00157635
0.00180727
0.00133149
0.000851556
0.000410456
9.35349e-05
9.62709e-05
0.000503665
0.00112872
0.00176141
0.00235945
0.00368606
0.00305393
0.00216501
0.00105596
0.000137168
0.000141668
0.00113083
0.00232376
0.00329933
0.00402122
0.00413789
0.00314636
0.00208951
0.000988774
0.000147832
0.000143669
0.000916019
0.00199013
0.00308206
0.00406391
0.00361696
0.00276613
0.00176754
0.000803427
0.000124088
0.000108566
0.000920064
0.00188529
0.00277712
0.0035276
0.00384141
0.00301448
0.00208051
0.0010423
0.00011859
0.000114747
0.00112192
0.00218616
0.00314037
0.00397223
0.00321713
0.00248343
0.00165644
0.00082586
0.000105308
0.000142452
0.00120082
0.0023305
0.00327592
0.00401655
0.00418425
0.00333571
0.00229449
0.00112698
0.000152588
0.000158529
0.00107427
0.00216272
0.00310222
0.00388658
0.00368705
0.00284967
0.00196563
0.000993746
0.000151508
0.000178299
0.00144367
0.00287965
0.00407948
0.00510718
0.00513968
0.0039659
0.00274104
0.0013789
0.000173622
0.000174794
0.00145203
0.00294176
0.00435709
0.00576004
0.00637612
0.00491389
0.00335012
0.00161879
0.000182805
0.0001919
0.00179205
0.00364103
0.00521419
0.00654212
0.00639718
0.00505094
0.00351149
0.00173554
0.000186184
0.000181162
0.00165663
0.00328015
0.00471896
0.00606392
0.00440407
0.00337654
0.00240415
0.00134161
0.000176849
0.000113047
0.000591795
0.00138136
0.0021708
0.00293569
0.00304158
0.00228406
0.00152163
0.000754914
9.10991e-05
9.45533e-05
0.000806252
0.00170349
0.00259549
0.00345079
0.0041291
0.00311967
0.00204695
0.000968173
0.000104508
0.0001107
0.00104925
0.0022304
0.00345944
0.00464642
0.00483181
0.00359675
0.00232812
0.00107287
0.000108534
0.000107042
0.00105078
0.00234681
0.00359712
0.0047708
0.00458346
0.00347739
0.00227819
0.00103904
0.000105925
0.000102067
0.000991633
0.00216391
0.00328307
0.00429704
0.00399579
0.00308909
0.00206842
0.00096513
9.78972e-05
9.43662e-05
0.000932841
0.00193354
0.00282834
0.00361569
0.00296561
0.0023264
0.00161782
0.000815217
8.36747e-05
6.09897e-05
0.000568316
0.00109059
0.00156974
0.00200179
0.00151571
0.00113217
0.00074199
0.000356838
4.00033e-05
5.23762e-05
0.000394557
0.000810017
0.00123753
0.00165095
0.00191
0.00144355
0.000944179
0.000449117
6.03563e-05
6.57483e-05
0.000501373
0.00106981
0.00163885
0.00215803
0.00234266
0.00178498
0.00116591
0.000543556
6.92378e-05
9.68068e-05
0.00088574
0.00187811
0.00284784
0.00376874
0.00404797
0.00305634
0.00201022
0.000940174
0.000100078
0.000102031
0.000984194
0.00211754
0.00322485
0.00427253
0.00415002
0.00308488
0.00198213
0.000892436
8.7806e-05
8.75718e-05
0.000910203
0.0020233
0.00314623
0.00422624
0.00338298
0.00247872
0.00156191
0.000687333
6.41728e-05
6.2564e-05
0.000678419
0.00153577
0.00243379
0.0033205
0.0037966
0.00285657
0.00184677
0.000831575
7.72981e-05
7.68358e-05
0.00083194
0.00184752
0.00285354
0.00378486
0.00418196
0.00313175
0.00203755
0.000934039
8.73196e-05
8.54644e-05
0.000905892
0.00196946
0.00302129
0.00402927
0.00300747
0.00223402
0.00142599
0.000637719
5.87484e-05
7.18088e-05
0.000761397
0.00171296
0.00266129
0.00354576
0.0031625
0.00234321
0.00149842
0.000676056
6.87063e-05
8.16453e-05
0.000849891
0.00189669
0.00291649
0.00385488
0.00313472
0.0023263
0.00148225
0.000665363
7.47031e-05
8.27656e-05
0.000836645
0.00184489
0.00281473
0.00370607
0.00280394
0.0020871
0.00133087
0.000599667
7.34968e-05
7.60932e-05
0.000741773
0.00160408
0.00242707
0.00319172
0.00233248
0.00174936
0.00113036
0.000520266
6.64189e-05
6.52089e-05
0.000604541
0.00127871
0.0019192
0.0025276
0.00178413
0.00131185
0.000837907
0.000386834
5.42299e-05
4.8286e-05
0.000462992
0.00099481
0.00151493
0.0020097
0.00243123
0.00186951
0.00127037
0.000624776
6.57509e-05
9.02692e-05
0.000806115
0.00156718
0.00222716
0.00282096
0.00213195
0.00166203
0.00111069
0.000539575
6.84112e-05
5.23532e-05
0.000522203
0.00115872
0.00180444
0.00229646
0.00139294
0.00101256
0.000642502
0.000307227
7.04495e-05
0.000123923
0.00061679
0.00101635
0.00136459
0.00170665
0.00193397
0.00144089
0.00103368
0.000618075
0.000162608
0.000141012
0.000524395
0.00096779
0.00144654
0.0020511
0.0019046
0.00131816
0.000832518
0.000427045
0.000104764
9.11143e-05
0.000395268
0.000695989
0.00103648
0.00146667
0.00306416
0.00247388
0.00175097
0.00092687
0.000125016
0.000128397
0.000915666
0.00179493
0.00247386
0.00295183
0.0030947
0.00259067
0.00186776
0.000947098
0.000131861
0.000141831
0.000955938
0.00197805
0.00292158
0.00379417
0.00404128
0.00309011
0.00206618
0.000979268
0.000146622
0.000196216
0.00161293
0.00338712
0.00487322
0.00604828
0.00579378
0.00460631
0.00316246
0.00149636
0.000187056
0.000170375
0.00123023
0.00259451
0.00390342
0.00500757
0.00381704
0.00283778
0.00186179
0.000907028
0.000130374
0.000121338
0.00089776
0.0017777
0.00266108
0.00349877
0.00292296
0.00225493
0.00151334
0.000774092
9.91598e-05
0.000101778
0.00056306
0.00103273
0.00146147
0.00200728
0.00352975
0.00283967
0.00203367
0.0010602
0.000119434
0.000104512
0.000760951
0.00148606
0.00213456
0.00267334
0.0029741
0.00240434
0.00167823
0.000871656
0.00012043
0.000124061
0.000791423
0.00143346
0.00195125
0.00238318
0.00264888
0.00197339
0.00135974
0.000735377
0.000126428
0.000126503
0.000814172
0.00167895
0.00264446
0.00368921
0.00427195
0.00318979
0.00212466
0.00105331
0.000148787
0.000156188
0.00128096
0.00263754
0.00393171
0.00526563
0.00625277
0.00475546
0.00319834
0.00152112
0.000171017
0.000184143
0.00162626
0.00343968
0.00510141
0.0066154
0.00654406
0.00509805
0.00349029
0.00167956
0.000189175
0.00018873
0.00161947
0.00333601
0.00486534
0.00625388
0.00593827
0.00467966
0.00334798
0.00168031
0.000186084
0.000175745
0.00173902
0.0031279
0.00433316
0.00572665
0.00476136
0.00371506
0.00259557
0.00133917
0.000178043
0.000141131
0.000651342
0.00144491
0.00224671
0.00299887
0.00310796
0.0023762
0.00161121
0.000824311
9.46014e-05
9.64328e-05
0.000828613
0.00172347
0.0026155
0.00347289
0.00416023
0.00314557
0.00205629
0.00097552
0.000105776
0.000109648
0.0010311
0.00223214
0.00348385
0.0046645
0.00487469
0.00363014
0.00234116
0.00104836
0.000110576
0.000112026
0.00106521
0.00237171
0.00364737
0.00484436
0.00460894
0.00347954
0.00226772
0.00104438
0.00011208
0.000106637
0.000975195
0.00211914
0.003237
0.00425909
0.00389504
0.00300998
0.00201093
0.000937379
9.98183e-05
9.48059e-05
0.000908913
0.00188759
0.00274789
0.00348624
0.00291616
0.00233458
0.00165332
0.000840795
8.99304e-05
6.79667e-05
0.000625688
0.00120009
0.00169711
0.00213193
0.00161574
0.00119202
0.000785907
0.000389926
4.62108e-05
5.11917e-05
0.000399833
0.000819569
0.00125456
0.00171211
0.00165827
0.00123841
0.00080963
0.0003843
4.45457e-05
4.76863e-05
0.000413017
0.000882352
0.00135736
0.00182082
0.00194199
0.00144572
0.00093725
0.000435694
4.97528e-05
5.07058e-05
0.000450873
0.000975626
0.00151026
0.00203467
0.00249246
0.0019024
0.00124257
0.000576792
7.11071e-05
7.20984e-05
0.00060667
0.00131038
0.00200521
0.0026248
0.00276312
0.00210994
0.00138012
0.000638955
7.25132e-05
0.000103165
0.0010211
0.0022063
0.00336172
0.00445178
0.00456669
0.00345139
0.00226594
0.00104678
0.000103412
8.65175e-05
0.000917003
0.00203542
0.00315897
0.0042348
0.00416355
0.00311094
0.00201071
0.000910387
8.45311e-05
6.07135e-05
0.000668394
0.00150763
0.00238383
0.0032452
0.00313514
0.00231247
0.00146927
0.000655528
5.88148e-05
7.60359e-05
0.000824248
0.0018274
0.00281524
0.00372376
0.00360073
0.00272972
0.00177666
0.000802989
7.48323e-05
8.33403e-05
0.000868574
0.0018798
0.00287666
0.00383017
0.00291217
0.0021679
0.00138563
0.000620821
5.77298e-05
7.12598e-05
0.000750163
0.00168551
0.00261135
0.00346756
0.00308587
0.0022966
0.00147441
0.00066744
6.82837e-05
8.15094e-05
0.000842897
0.00187717
0.00287567
0.00378418
0.00309593
0.00231273
0.00148188
0.000667631
7.48035e-05
8.32436e-05
0.00083806
0.00184628
0.00280472
0.00367156
0.00279767
0.00209757
0.00134425
0.000606436
7.40366e-05
7.67479e-05
0.00074846
0.00162086
0.00244283
0.00319173
0.00232761
0.00175922
0.00114053
0.000523729
6.67794e-05
6.53414e-05
0.000606845
0.00128678
0.00192371
0.00251725
0.00173982
0.00129485
0.000832328
0.000384255
5.43391e-05
4.80694e-05
0.000445395
0.000950204
0.00144133
0.00190866
0.00216422
0.00164859
0.00110943
0.000543384
6.2184e-05
8.45867e-05
0.000718872
0.00137084
0.00194261
0.00246843
0.00188133
0.0014621
0.000985333
0.000494512
6.47889e-05
3.68581e-05
0.000413072
0.000979295
0.00160456
0.0020974
0.00119015
0.000809046
0.000465787
0.000204048
5.56811e-05
0.000132523
0.000648709
0.0010291
0.00136999
0.00166723
0.00254003
0.00194408
0.00138999
0.000795164
0.000176186
0.000152767
0.000673311
0.0013354
0.00199014
0.00268734
0.00228203
0.0016616
0.00106359
0.000501939
0.000113253
0.000133857
0.000835942
0.00169625
0.00251666
0.00328843
0.00326332
0.0024921
0.00163818
0.00081361
0.000120843
0.000120682
0.000750131
0.00159642
0.00254474
0.00356426
0.00371032
0.0027686
0.00183017
0.000884616
0.000130876
0.000137459
0.000912622
0.00192238
0.00285671
0.00371889
0.00592032
0.00489267
0.00347476
0.00168387
0.000196104
0.000200525
0.00169501
0.00349162
0.0049149
0.00596669
0.00549053
0.00415278
0.00271909
0.00125769
0.000195607
0.000190181
0.00114188
0.00251007
0.00391298
0.00524412
0.00484234
0.00360336
0.00232612
0.00107364
0.000180445
0.000163668
0.00101216
0.00212648
0.00322698
0.00429813
0.00498456
0.00391582
0.00270562
0.00134841
0.000169231
0.000119275
0.000737126
0.00143784
0.00221183
0.00305789
0.00339722
0.00265181
0.0019686
0.00105937
0.000143554
0.00011254
0.000614725
0.00112449
0.00155405
0.00198696
0.00205266
0.00162213
0.00120298
0.000668494
0.000117353
0.000107897
0.000802673
0.00147863
0.00202748
0.00250227
0.00133205
0.00104411
0.00075277
0.000436254
9.17148e-05
9.99283e-05
0.000552154
0.0009789
0.0013502
0.00166841
0.00255381
0.00199244
0.00144971
0.000826213
0.000129861
0.000143559
0.00110428
0.00209675