/*--------------------------------*- C++ -*----------------------------------*\
| =========                 |                                                 |
| \\      /  F ield         | OpenFOAM: The Open Source CFD Toolbox           |
|  \\    /   O peration     | Version:  2306                                  |
|   \\  /    A nd           | Website:  www.openfoam.com                      |
|    \\/     M anipulation  |                                                 |
\*---------------------------------------------------------------------------*/
FoamFile
{
    version     2.0;
    format      ascii;
    arch        "LSB;label=32;scalar=64";
    class       volScalarField;
    location    "4";
    object      p;
}
// * * * * * * * * * * * * * * * * * * * * * * * * * * * * * * * * * * * * * //

dimensions      [1 -1 -2 0 0 0 0];

internalField   nonuniform List<scalar> 
143976
(
0
257.637
308.451
355.151
398.082
437.624
127.071
93.0938
55.5994
14.33
-31.0786
33.6334
75.3374
113.535
148.482
180.224
233.692
205.996
175.478
142.092
105.44
533.068
584.863
632.187
675.552
714.993
965.835
920.616
871.199
817.093
758.263
482.013
539.024
591.109
638.22
680.763
702.095
655.217
603.113
545.384
481.685
248.855
305.086
357.298
405.298
449.225
148.99
110.379
67.5934
20.3565
-31.8682
-271.516
-231.731
-194.27
-159.815
-128.412
-459.983
-475.343
-492.675
-512.314
-534.468
-512.819
-490.652
-470.798
-453.248
-437.96
-341.171
-362.776
-386.367
-412.389
-440.686
-254.369
-217.835
-184.049
-153.009
-124.231
-469.866
-849.36
-837.413
-816.538
-797.704
-780.75
-765.698
-752.887
-767.948
-784.943
-804.198
-825.475
-814.673
-797.365
-782.194
-768.787
-756.467
-269.618
-292.122
-317.002
-344.517
-375.042
-359.948
-340.415
-322.987
-307.238
-292.644
-337.434
-346.487
-356.722
-368.569
-382.303
99.1314
122.259
143.051
161.964
179.409
729.051
696.785
661.213
622.489
580.235
1003.25
1059.84
1111.57
1159.01
1202.2
1434.03
1386.86
1335.25
1278.74
1217.43
961.401
1023.07
1079.54
1130.59
1176.86
1195.47
1145.23
1089.38
1027.48
959.308
748.27
811.331
869.655
923.091
971.862
961.085
910.71
855.526
795.557
731.071
463.992
529.545
589.471
643.85
692.637
438.011
392.197
342.258
288.091
229.97
-52.7331
1.19346
50.2415
94.7871
134.873
-150.062
-182.561
-218.22
-256.849
-297.935
-563.46
-540.618
-520.367
-502.392
-486.321
-821.754
-837.372
-854.944
-874.601
-896.562
-864.135
-843.36
-824.562
-807.746
-792.848
-1137.99
-1167.7
-1200.2
-1235.4
-1274.09
-1251.95
-1220.76
-1193.02
-1167.42
-1143.76
-1200.8
-1214.98
-1230.33
-1247.8
-1267.92
-1256.31
-1245.5
-1237.08
-1230.26
-1224.12
-1247.61
-1250.68
-1254.33
-1259.56
-1267.04
-820.21
-808.526
-798.809
-790.634
-783.32
-819.069
-823.668
-829.055
-835.905
-844.564
-875.823
-870.029
-865.096
-861.248
-858.078
-392.77
-398.58
-405.766
-414.912
-425.616
55.0728
72.3147
87.1975
99.8928
110.94
649.701
628.779
606.008
581.065
553.528
1034.38
1081.41
1124.61
1164.44
1200.52
1643.88
1599.2
1550.06
1496.4
1437.37
1628.93
1688.09
1742.64
1792.34
1837.6
1618.68
1571.84
1519.96
1462.62
1399.92
1392.08
1459.86
1521.27
1576.66
1626.52
1433.63
1383.78
1329.08
1269.29
1204.52
1186.14
1251.99
1313.23
1369.48
1420.46
1184.72
1132.9
1075.01
1011.16
941.502
922.233
992.184
1056.35
1114.55
1166.61
941.485
890.682
835.097
774.61
709.317
440.553
506.491
566.819
621.571
670.684
413.764
367.646
317.246
262.499
203.546
-82.2925
-27.9542
21.4639
66.305
106.652
-182.277
-215.155
-251.228
-290.446
-332.502
-601.12
-578.135
-557.738
-539.556
-523.355
-863.46
-879.352
-897.18
-917.135
-939.546
-1365.62
-1322.25
-1283.59
-1248.42
-1216.31
-1168.24
-1199.66
-1234.11
-1271.83
-1313.7
-1634.5
-1599.23
-1564.93
-1532.57
-1502.16
-1861.18
-1869.93
-1879.4
-1889.39
-1900.79
-1846.86
-1837.14
-1828.59
-1820.46
-1812.87
-1787.52
-1793.12
-1799.16
-1805.69
-1813.57
-1758.93
-1750.29
-1742.47
-1735.89
-1730.22
-1470.74
-1491.51
-1513.17
-1535.31
-1558.41
-1583.42
-1551.34
-1519.58
-1489.02
-1460.25
-1792.27
-2082.65
-2218.5
-2224
-2229.09
-2232.28
-2234.23
-2218.34
-2213.48
-2206.61
-2197.57
-2189.42
-2030.43
-2033.97
-2037.64
-2041.54
-2045.1
-2062.05
-2051.44
-2040.5
-2032.84
-2028.97
-1711.8
-1699.87
-1690.86
-1684.06
-1678.56
-1685.42
-1686.84
-1688.88
-1692.36
-1697.79
-1702.08
-1698.27
-1696.12
-1695.35
-1695.11
-1709.37
-1709.25
-1709.52
-1710.95
-1713.77
-1287.43
-1281.9
-1278.29
-1276.06
-1274.27
-1301.36
-1302.84
-1304.49
-1306.84
-1310.3
-1331.58
-1330.15
-1328.93
-1327.64
-1326.23
-892.412
-894.895
-897.829
-901.161
-904.556
-468.234
-459.594
-452.035
-446.992
-443.024
43.8437
36.678
27.9535
16.3024
1.86116
502.757
523.489
541.45
557.113
571.061
1119.98
1094.66
1067.23
1037.65
1005.5
1465.09
1515.25
1561.34
1603.88
1642.41
2025.98
1980.85
1931.23
1876.89
1816.58
1968.58
2027.18
2081.04
2130.07
2174.7
1991.79
1947.95
1899.47
1845.88
1787.1
1775.97
1840.18
1898.11
1950.34
1997.47
1831.97
1784.55
1732.31
1675.06
1612.97
1595.93
1659.48
1718.56
1772.65
1821.5
1614.3
1563.11
1505.87
1442.66
1373.65
1358.12
1427.5
1491.2
1548.87
1600.35
1404.29
1353.01
1296.39
1234.7
1168.22
1144.26
1210.9
1272.64
1329.22
1380.52
1139.87
1087.91
1029.86
965.89
896.314
679.034
744.642
805.319
861.022
911.932
637.785
588.721
534.112
473.964
408.197
166.847
226.253
281.236
331.764
377.884
67.0209
26.7128
-18.0174
-67.3176
-121.568
-376.754
-334.154
-294.635
-258.399
-225.385
-570.093
-586.31
-604.478
-624.806
-647.697
-990.592
-967.918
-947.851
-929.995
-914.042
-1271.37
-1304.24
-1340.05
-1379.54
-1423.81
-1758.82
-1719.12
-1682.13
-1647.99
-1616.5
-1974.2
-1982.59
-1992.08
-2002.34
-2013.96
-1961.45
-1949.89
-1939.79
-1930.25
-1921.38
-2171.58
-2169.43
-2166.52
-2162.75
-2158.68
-2108.86
-2115.79
-2122.02
-2126.38
-2129.74
-2080.98
-2076.19
-2070.22
-2062.43
-2053.08
-2001.26
-2010.44
-2018.01
-2023.55
-2027.44
-2038.55
-2050.76
-2241.72
-2245.11
-2245.86
-2246.14
-2246.17
-2246.07
-2244.44
-2244.52
-2244.15
-2242.81
-2240.68
-2230.85
-2231.6
-2232.89
-2234.02
-2234.96
-2024.72
-2021.08
-2017.71
-2016.68
-2018.66
-2020.52
-2018.33
-2019.17
-2021.51
-2023.81
-2030
-2027.58
-2025.02
-2023.99
-2025.73
-2041.67
-2040.07
-2040.73
-2042.6
-2044.27
-1728.27
-1728.22
-1728.36
-1729.28
-1731.22
-1750.57
-1749.32
-1748.82
-1748.81
-1748.83
-1771.27
-1771.07
-1770.91
-1771.22
-1772.25
-1354.82
-1354.17
-1353.52
-1352.5
-1351.23
-921.875
-924.058
-926.517
-928.828
-930.955
-502.125
-495.62
-489.7
-485.753
-482.787
-11.8914
-16.7728
-22.9585
-32.1641
-43.9929
449.879
466.625
480.234
491.426
501.058
1044.84
1026.95
1007.16
985.412
961.435
1455.37
1493.8
1529.49
1562.79
1593.11
2090.35
2045.23
1995.34
1940.76
1880.44
2061.13
2134.44
2201.64
2262.59
2317.96
2322.77
2262.25
2195.71
2122.63
2042.83
1959.68
2021.99
2079.12
2131.25
2178.57
2171.61
2122.62
2068.32
2008.94
1944.73
1759.86
1826.02
1886.21
1940.6
1989.36
1980.22
1931.02
1875.94
1814.91
1747.94
1582.39
1646.71
1706.42
1761.03
1810.27
1792.4
1743.11
1688.42
1628.56
1563.97
1337.78
1406.95
1470.62
1528.28
1579.73
1553.68
1502.45
1445.12
1381.8
1313.08
1114.65
1181.52
1243.19
1299.54
1350.79
1106.54
1054.96
997.44
934.029
864.929
642.871
708.669
769.293
824.826
875.409
597.651
548.911
494.82
435.239
369.913
123.208
182.984
238.03
288.479
334.478
19.5799
-20.5793
-65.0566
-114.065
-168.061
-427.883
-384.966
-345.525
-309.231
-276.113
-623.989
-640.164
-657.834
-678.226
-701.062
-1047.81
-1024.81
-1004.52
-986.586
-970.594
-1331.22
-1364.98
-1401.71
-1442.45
-1487.84
-1822.62
-1782.97
-1744.89
-1709.52
-1677.76
-2015.61
-2023.86
-2034.38
-2044.91
-2056.82
-2206.34
-2207.18
-2206.46
-2205.86
-2205.83
-2194.29
-2193.28
-2192.05
-2190.71
-2188.43
-2243.76
-2244.66
-2244.98
-2245.13
-2245.2
-2244.99
-2244.97
-2244.76
-2244.41
-2243.78
-2238.15
-2240.23
-2241.53
-2242.45
-2242.96
-2246.62
-2246.55
-2246.47
-2246.39
-2246.34
-2246.27
-2246.4
-2246.46
-2246.52
-2246.56
-2247.26
-2247.23
-2247.2
-2247.17
-2247.15
-2247.18
-2247.19
-2247.2
-2247.2
-2247.2
-2247.18
-2247.2
-2247.23
-2247.29
-2247.36
-2247.66
-2247.63
-2247.58
-2247.54
-2247.53
-2247.68
-2247.68
-2247.71
-2247.75
-2247.76
-2221.29
-2221.35
-2222.45
-2223.44
-2224.05
-2224
-2223.51
-2222.63
-2221.81
-2222.1
-2229.56
-2229.31
-2229.68
-2230.08
-2230.31
-2236.57
-2236.51
-2236.33
-2236.1
-2236.18
-2059.65
-2058
-2058.32
-2059.73
-2060.99
-2076.96
-2075.8
-2074.57
-2074.41
-2076.1
-2091.55
-2089.91
-2090.12
-2091.27
-2092.36
-1794.59
-1794.2
-1793.88
-1794.16
-1795.27
-1378.95
-1378.47
-1378.07
-1377.27
-1375.98
-947.415
-949.857
-952.301
-953.992
-955.222
-530.719
-526.161
-521.519
-517.676
-514.97
-56.2503
-60.0365
-64.9769
-72.7877
-82.2089
402.842
416.791
427.417
435.405
442.059
980.2
967.189
952.612
936.114
917.181
1431.86
1461.81
1489.22
1514.48
1537.55
2091.64
2052.01
2008.14
1960.27
1907.8
2255.81
2320.63
2378.72
2431.53
2479.28
2615.65
2569.79
2519.42
2464.03
2403.72
2235.45
2300.95
2360.53
2414.51
2463.54
2465.7
2413.47
2355.85
2292.01
2220.84
2201.51
2275.21
2341.8
2401.98
2456.28
2314.76
2251.72
2182.06
2105.91
2023.47
2012.81
2096.64
2174.11
2244.93
2308.83
2164.5
2114.95
2059.9
1999.65
1934.49
1921
1986.47
2047.02
2102.33
2152.06
1965.35
1916.09
1860.85
1799.65
1732.71
1713.76
1780.49
1841.61
1896.76
1945.94
1769.55
1720.38
1665.92
1606.24
1541.65
1514.23
1579.01
1638.58
1692.83
1741.98
1522.9
1471.87
1414.83
1351.81
1283.37
1080.64
1147.68
1209.28
1265.45
1316.42
1068.82
1017.54
960.563
897.738
829.102
601.784
667.891
728.472
783.769
834.116
552.319
504.021
450.623
391.8
327.005
74.4531
134.635
189.732
240.059
285.866
-33.6694
-73.6908
-117.891
-166.484
-220.05
-484.519
-441.326
-402.042
-365.987
-332.654
-683.819
-699.807
-717.546
-737.773
-760.473
-1111.1
-1087.68
-1067
-1048.74
-1032.48
-1396.82
-1432.25
-1470.81
-1513.3
-1560
-1893.04
-1853.2
-1814.77
-1778.15
-1744.56
-2058.02
-2066.63
-2077.8
-2088.41
-2099.7
-2220.34
-2220.41
-2219.48
-2217.97
-2217.43
-2244.82
-2244.85
-2244.78
-2244.55
-2244.13
-2243.78
-2244.49
-2244.71
-2244.74
-2244.7
-2245.97
-2245.97
-2245.94
-2245.88
-2245.74
-2246.08
-2246.23
-2246.29
-2246.33
-2246.35
-2246.59
-2246.52
-2246.46
-2246.36
-2246.26
-2246.97
-2246.99
-2247.03
-2247.06
-2247.08
-2247.23
-2247.2
-2247.17
-2247.14
-2247.11
-2247.47
-2247.5
-2247.54
-2247.58
-2247.6
-2247.62
-2247.6
-2247.56
-2247.53
-2247.51
-2247.49
-2247.48
-2247.48
-2247.5
-2247.54
-2247.43
-2247.46
-2247.5
-2247.55
-2247.59
-2247.7
-2247.71
-2247.7
-2247.69
-2247.67
-2247.71
-2247.72
-2247.73
-2247.73
-2247.73
-2247.73
-2247.73
-2247.72
-2247.71
-2247.7
-2247.62
-2247.62
-2247.64
-2247.65
-2247.64
-2247.37
-2247.39
-2247.39
-2247.39
-2247.38
-2247.16
-2247.17
-2247.18
-2247.18
-2247.16
-2247
-2247.01
-2247.01
-2247
-2246.99
-2240.86
-2240.89
-2240.78
-2240.61
-2240.61
-2243.48
-2243.49
-2243.6
-2243.65
-2243.59
-2245.33
-2245.4
-2245.41
-2245.37
-2245.37
-2107.65
-2106.04
-2106.23
-2107.31
-2108.14
-1817.98
-1817.41
-1816.91
-1817.09
-1818.25
-1403.12
-1402.73
-1402.44
-1401.63
-1400.43
-971.615
-974.33
-976.982
-978.482
-979.254
-556.036
-552.719
-548.616
-544.589
-541.464
-89.7017
-92.9719
-97.3588
-104.3
-111.585
366.008
377.75
386.285
392.267
397.028
926.093
916.732
906.093
893.45
877.795
1402.59
1425.94
1446.91
1465.93
1483.21
2038.39
2008.08
1974.89
1939
1900.04
2288.21
2348.46
2402.6
2451.93
2496.55
2720.4
2663.22
2600.43
2531.24
2455.54
2445.46
2529.4
2605.55
2674.64
2737.79
2616.25
2567.9
2514.73
2456.31
2392.28
2374.3
2440.12
2500.76
2556.08
2606.1
2599.72
2548.95
2492.61
2430.86
2363.97
2190.7
2265.7
2333.57
2394.84
2449.94
2441.18
2385.61
2323.84
2255.41
2180
2001.06
2085.43
2163.42
2234.7
2298.9
2284.96
2220.83
2149.56
2071.49
1986.92
1903.96
1969.57
2030.16
2085.43
2135.14
2113.64
2064.02
2008.85
1948.32
1882.64
1690.38
1756.84
1817.78
1872.81
1921.9
1895.2
1846.16
1791.22
1730.4
1664.19
1484.16
1549.04
1608.65
1662.91
1712.03
1489.98
1439.03
1382.18
1319.38
1251.17
1044.61
1111.82
1173.42
1229.51
1280.44
1029.14
978.077
921.503
859.103
790.761
558.632
625.107
685.751
740.913
791.174
504.918
456.974
404.176
346.044
281.729
23.4754
84.1789
139.375
189.49
235.143
-90.1761
-130.141
-173.932
-221.884
-274.884
-544.717
-500.665
-461.307
-425.809
-392.72
-748.128
-763.735
-781.478
-801.668
-824.161
-1180.79
-1157.1
-1136.01
-1117.31
-1100.74
-1472.69
-1509.8
-1550.06
-1593.78
-1640.95
-1974.34
-1934.28
-1895.5
-1858.08
-1823.96
-2110.83
-2118.63
-2129.44
-2139.05
-2147.2
-2231.89
-2231.85
-2231.7
-2231.16
-2230.76
-2244.95
-2244.88
-2244.75
-2244.58
-2244.39
-2245.19
-2245.31
-2245.38
-2245.43
-2245.44
-2245.7
-2245.7
-2245.65
-2245.57
-2245.41
-2246.23
-2246.26
-2246.27
-2246.28
-2246.26
-2246.57
-2246.58
-2246.58
-2246.57
-2246.55
-2246.82
-2246.82
-2246.84
-2246.84
-2246.85
-2247.2
-2247.19
-2247.18
-2247.16
-2247.15
-2247.33
-2247.35
-2247.39
-2247.42
-2247.43
-2247.77
-2247.74
-2247.71
-2247.68
-2247.62
-2247.72
-2247.79
-2247.85
-2247.89
-2247.92
-2248.02
-2247.96
-2247.91
-2247.86
-2247.81
-2247.86
-2247.89
-2247.92
-2247.96
-2248.01
-2248.32
-2248.28
-2248.24
-2248.19
-2248.13
-2248.14
-2248.15
-2248.17
-2248.19
-2248.2
-2248.33
-2248.31
-2248.3
-2248.28
-2248.26
-2248.27
-2248.28
-2248.29
-2248.29
-2248.29
-2248.24
-2248.24
-2248.24
-2248.24
-2248.23
-2247.69
-2247.7
-2247.69
-2247.67
-2247.66
-2247.59
-2247.6
-2247.61
-2247.62
-2247.6
-2247.5
-2247.52
-2247.51
-2247.5
-2247.49
-2247.4
-2247.41
-2247.42
-2247.43
-2247.42
-2246.87
-2246.87
-2246.87
-2246.86
-2246.85
-2246.7
-2246.7
-2246.71
-2246.71
-2246.71
-2246.52
-2246.52
-2246.52
-2246.53
-2246.53
-2246.14
-2246.21
-2246.29
-2246.35
-2246.4
-2124.42
-2122.81
-2122.71
-2123.78
-2124.78
-1841.71
-1840.9
-1840.12
-1840.14
-1841.44
-1428.43
-1427.99
-1427.91
-1427.19
-1426.01
-998.746
-1001.48
-1004.31
-1006
-1006.79
-584.124
-580.691
-576.082
-571.564
-568.486
-117.045
-120.122
-124.635
-131.476
-138.349
339.333
349.042
356.219
361.363
365.477
886.637
879.447
871.201
861.351
849.077
1376.49
1395.21
1411.85
1426.8
1440.24
2004.57
1980.75
1954.3
1925.39
1893.86
2350.54
2409.53
2462.49
2510.59
2554.03
2835.35
2774.13
2706.5
2631.56
2549.44
2534.84
2627.1
2710.97
2786.9
2856.01
2836.81
2765.67
2687.43
2601.33
2507.21
2422.58
2508.55
2587.01
2658.58
2723.71
2713.91
2647.84
2575.02
2495.27
2408.02
2396.51
2484.38
2564.93
2638.54
2705.18
2591.95
2540.8
2483.89
2421.52
2354.15
2343.67
2411.33
2474.01
2531.17
2582.49
2429.84
2374.31
2312.33
2243.69
2168.28
2153.65
2228.95
2297.67
2359.78
2415.29
2267.51
2203.35
2132.08
2053.97
1969.27
1948.38
2033.18
2111.27
2182.51
2246.68
2089.52
2039.91
1984.79
1924.25
1858.45
1831.86
1897.89
1958.54
2013.7
2063.38
1867.03
1817.97
1763.03
1702.26
1636.14
1452.6
1517.65
1577.4
1631.79
1681
1456.36
1405.39
1348.57
1285.83
1217.77
1007.42
1074.93
1136.73
1192.97
1244.04
989.404
938.325
881.794
819.49
751.318
514.971
581.92
642.832
698.143
748.59
457.785
409.827
357.18
299.299
235.321
-28.0813
33.1595
88.5198
138.572
184.281
-146.748
-186.447
-229.886
-277.386
-329.982
-606.055
-560.971
-520.833
-485.382
-452.851
-814.615
-830.446
-848.41
-868.44
-890.651
-1256.76
-1233.29
-1212.05
-1192.99
-1176.18
-1559.05
-1597.09
-1637.91
-1681.09
-1726.83
-2060.79
-2022.13
-1984.63
-1948.49
-1914.92
-2168.98
-2174.23
-2181.87
-2187.87
-2191.3
-2238.39
-2238.49
-2238.73
-2238.91
-2238.74
-2244.61
-2244.51
-2244.39
-2244.33
-2244.34
-2244.98
-2245.05
-2245.11
-2245.14
-2245.14
-2245.65
-2245.66
-2245.67
-2245.68
-2245.68
-2245.92
-2245.94
-2245.95
-2245.95
-2245.93
-2246.43
-2246.42
-2246.4
-2246.38
-2246.36
-2246.62
-2246.64
-2246.66
-2246.67
-2246.68
-2246.94
-2246.94
-2246.93
-2246.92
-2246.9
-2247.21
-2247.23
-2247.24
-2247.25
-2247.28
-2247.53
-2247.5
-2247.48
-2247.46
-2247.44
-2247.71
-2247.76
-2247.79
-2247.82
-2247.84
-2248.05
-2248.01
-2247.97
-2247.92
-2247.86
-2247.95
-2248.04
-2248.11
-2248.16
-2248.21
-2248.34
-2248.29
-2248.24
-2248.18
-2248.08
-2248.37
-2248.42
-2248.47
-2248.53
-2248.58
-2248.62
-2248.57
-2248.54
-2248.5
-2248.45
-2248.69
-2248.75
-2248.81
-2248.87
-2248.93
-2248.84
-2248.81
-2248.77
-2248.73
-2248.69
-2248.74
-2248.77
-2248.8
-2248.83
-2248.86
-2248.72
-2248.7
-2248.67
-2248.66
-2248.64
-2248.49
-2248.5
-2248.51
-2248.53
-2248.55
-2248.12
-2248.12
-2248.12
-2248.12
-2248.1
-2247.96
-2247.97
-2247.98
-2247.99
-2247.99
-2247.87
-2247.87
-2247.86
-2247.86
-2247.85
-2247.79
-2247.79
-2247.79
-2247.79
-2247.79
-2247.32
-2247.33
-2247.34
-2247.35
-2247.35
-2247.29
-2247.29
-2247.28
-2247.27
-2247.26
-2247.33
-2247.33
-2247.34
-2247.35
-2247.35
-2246.45
-2246.45
-2246.45
-2246.46
-2246.46
-2246.28
-2246.35
-2246.47
-2246.6
-2246.69
-2142.24
-2140.35
-2139.44
-2140.07
-2140.87
-1866.14
-1865
-1863.85
-1863.78
-1865.45
-1457.35
-1456.23
-1455.9
-1455.59
-1454.58
-1031.89
-1034.28
-1037.16
-1039.52
-1040.96
-617.424
-612.895
-607.166
-602.076
-599.232
-142.544
-145.524
-150.69
-157.776
-165.806
315.991
324.204
330.723
335.818
340.041
857.432
850.772
843.295
834.807
824.893
1353.38
1368.84
1382.74
1395.34
1406.59
1972.7
1952.91
1931.08
1907.22
1881.12
2368.97
2419.28
2465
2506.6
2544.07
2941.4
2894.09
2841.56
2783.49
2718.57
2870.21
2932.41
2989.28
3040.84
3087.69
2965.76
2913
2855.03
2790.91
2720.21
2709.6
2786.92
2855.99
2918.4
2975.33
2956.49
2898.28
2834.64
2764.46
2686.08
2667.96
2747.09
2817.97
2882.31
2941.15
2822.96
2750.75
2671.3
2583.92
2488.48
2474.41
2570.45
2658.59
2738.9
2811.78
2802.51
2729.1
2648.13
2559.4
2462.95
2386.3
2474.6
2555.66
2629.78
2696.76
2687.31
2620.03
2545.51
2464.03
2375.42
2330.95
2398.85
2461.72
2519.04
2570.45
2555.72
2504.26
2446.87
2383.89
2315.79
2136.26
2211.4
2280.12
2342.3
2397.86
2377.75
2322.16
2259.95
2191.28
2116.32
1925.05
2009.91
2087.99
2159.24
2223.5
2198.67
2134.31
2063.05
1985.02
1900.22
1804.24
1870.42
1931.22
1986.49
2036.32
1838.74
1789.6
1734.61
1673.83
1607.75
1420.83
1486.08
1546.09
1600.73
1650.16
1423.84
1372.7
1315.69
1252.85
1184.76
970.641
1038.52
1100.71
1157.31
1208.7
951.157
899.844
843.021
780.471
712.264
471.993
539.438
600.794
656.51
707.297
412.567
364.321
311.331
253.156
189.163
-79.1937
-17.3493
38.3712
88.8121
135.118
-201.076
-240.771
-284.236
-331.805
-384.361
-668.428
-622.416
-581.29
-545.373
-512.61
-883.021
-899.123
-917.14
-937.025
-958.805
-1334.59
-1311.84
-1290.93
-1271.85
-1254.9
-1649.93
-1687.93
-1727.75
-1768.83
-1811.64
-2132.91
-2100.32
-2068.35
-2036.86
-2006.24
-2211.43
-2214.42
-2217.52
-2219.33
-2219.86
-2240.49
-2240.42
-2240.53
-2240.67
-2240.63
-2244.09
-2244.04
-2244.01
-2244.04
-2244.09
-2244.77
-2244.79
-2244.82
-2244.83
-2244.83
-2245.43
-2245.46
-2245.48
-2245.5
-2245.51
-2245.95
-2245.95
-2245.95
-2245.95
-2245.95
-2246.21
-2246.2
-2246.18
-2246.17
-2246.16
-2246.53
-2246.57
-2246.61
-2246.65
-2246.69
-2246.85
-2246.82
-2246.79
-2246.76
-2246.72
-2246.95
-2246.98
-2247
-2247.02
-2247.04
-2247.37
-2247.35
-2247.33
-2247.31
-2247.27
-2247.5
-2247.54
-2247.56
-2247.58
-2247.6
-2247.84
-2247.83
-2247.82
-2247.82
-2247.79
-2247.98
-2248.02
-2248.05
-2248.07
-2248.1
-2248.29
-2248.24
-2248.19
-2248.14
-2248.09
-2248.22
-2248.27
-2248.33
-2248.39
-2248.45
-2248.69
-2248.62
-2248.56
-2248.5
-2248.43
-2248.57
-2248.64
-2248.7
-2248.77
-2248.84
-2249.21
-2249.09
-2248.95
-2248.83
-2248.74
-2248.98
-2249.04
-2249.09
-2249.13
-2249.17
-2249.35
-2249.3
-2249.24
-2249.18
-2249.11
-2249.12
-2249.17
-2249.21
-2249.26
-2249.3
-2249.16
-2249.11
-2249.07
-2249.04
-2249.01
-2249
-2249.01
-2249.02
-2249.04
-2249.07
-2249.04
-2249.02
-2249
-2248.98
-2248.96
-2248.4
-2248.41
-2248.43
-2248.44
-2248.45
-2248.39
-2248.38
-2248.36
-2248.35
-2248.34
-2248.3
-2248.3
-2248.31
-2248.31
-2248.32
-2248.27
-2248.27
-2248.28
-2248.27
-2248.27
-2247.76
-2247.75
-2247.75
-2247.75
-2247.75
-2247.78
-2247.78
-2247.78
-2247.78
-2247.79
-2247.89
-2247.89
-2247.9
-2247.89
-2247.89
-2247.48
-2247.49
-2247.49
-2247.49
-2247.48
-2246.42
-2246.43
-2246.45
-2246.45
-2246.45
-2246.2
-2246.26
-2246.41
-2246.59
-2246.71
-2157.7
-2156.25
-2156.14
-2156.53
-2157.27
-1892.21
-1890.6
-1889.23
-1889.65
-1891.95
-1489.66
-1487.76
-1486.82
-1486.57
-1486.22
-1068.73
-1070.7
-1073.59
-1076.55
-1078.83
-654.449
-648.91
-642.384
-636.986
-634.77
-172.228
-175.15
-180.146
-187.159
-195.324
291.465
299.104
305.66
311.148
315.887
832.734
825.777
818.084
809.787
800.81
1327.9
1341.24
1353.71
1365.39
1375.7
1933.95
1916.9
1898.06
1877.86
1856.2
2348.99
2386.84
2421.85
2454.37
2483.98
2929.58
2885.54
2837.08
2784.03
2725
2890.46
2964.94
3032.95
3094.6
3150.54
3172.81
3112.69
3046.45
2972.59
2890.23
2861.55
2926.76
2985.83
3039.29
3087.81
3070.23
3020.98
2966.72
2906.82
2840.82
2824.34
2890.91
2951.22
3005.7
3055.03
3040.97
2991.81
2937.32
2876.82
2809.94
2652.31
2731.82
2803.2
2868.08
2927.34
2914.97
2855.41
2790.07
2718.18
2638.33
2625.96
2705.95
2778.24
2844.01
2903.87
2793.97
2720.06
2638.47
2549.25
2452.54
2442.8
2539.63
2628.95
2710.94
2785.31
2676.03
2608.51
2533.7
2451.96
2363.08
2348.59
2437.66
2519.44
2594.35
2662
2538
2486.49
2429.08
2366.06
2297.8
2277.31
2345.54
2408.47
2465.79
2517.29
2355.28
2299.69
2237.56
2169.08
2094.4
2071.31
2145.34
2213.25
2274.98
2330.4
2172.36
2108
2036.92
1959.19
1874.7
1776.04
1842.16
1903.04
1958.38
2008.35
1810.43
1761.2
1706.17
1645.48
1579.46
1389.26
1454.62
1514.9
1569.84
1619.56
1392.69
1341.31
1284.05
1221.04
1152.85
935.19
1003.42
1066.07
1123.16
1174.97
915.445
863.742
806.443
743.482
675.09
430.911
498.882
560.816
617.088
668.341
370.352
321.739
268.235
209.542
145.319
-128.193
-65.6482
-9.24265
41.9003
88.7703
-252.462
-292.647
-336.495
-384.372
-436.988
-729.321
-682.497
-640.573
-603.904
-570.623
-949.244
-965.576
-983.754
-1003.51
-1024.81
-1409.58
-1387.62
-1367.26
-1348.51
-1331.56
-1738.86
-1775.17
-1812.51
-1850.43
-1889.48
-2180.25
-2155.57
-2131.05
-2106.94
-2083.54
-2229.44
-2230.61
-2231.43
-2231.9
-2232
-2241.17
-2241.02
-2240.99
-2241
-2240.98
-2243.79
-2243.74
-2243.72
-2243.74
-2243.79
-2244.59
-2244.58
-2244.59
-2244.61
-2244.61
-2245.28
-2245.31
-2245.33
-2245.35
-2245.37
-2245.84
-2245.83
-2245.83
-2245.83
-2245.82
-2246.43
-2246.4
-2246.37
-2246.34
-2246.3
-2246.38
-2246.42
-2246.45
-2246.49
-2246.53
-2246.95
-2246.9
-2246.86
-2246.82
-2246.78
-2246.94
-2246.99
-2247.02
-2247.05
-2247.08
-2247.21
-2247.19
-2247.16
-2247.13
-2247.09
-2247.41
-2247.43
-2247.43
-2247.43
-2247.44
-2247.58
-2247.57
-2247.58
-2247.59
-2247.57
-2247.98
-2248
-2248.01
-2248.01
-2248.01
-2248.22
-2248.2
-2248.19
-2248.16
-2248.14
-2248.23
-2248.28
-2248.32
-2248.37
-2248.4
-2248.53
-2248.48
-2248.42
-2248.36
-2248.29
-2248.56
-2248.64
-2248.71
-2248.77
-2248.83
-2249.03
-2248.94
-2248.82
-2248.72
-2248.65
-2248.96
-2249.06
-2249.18
-2249.25
-2249.3
-2249.57
-2249.45
-2249.33
-2249.2
-2249.07
-2249.28
-2249.35
-2249.44
-2249.56
-2249.67
-2249.41
-2249.36
-2249.31
-2249.27
-2249.23
-2249.43
-2249.52
-2249.62
-2249.71
-2249.77
-2249.84
-2249.74
-2249.65
-2249.57
-2249.48
-2249.67
-2249.74
-2249.82
-2249.88
-2249.92
-2249.82
-2249.79
-2249.75
-2249.71
-2249.66
-2249.54
-2249.57
-2249.6
-2249.62
-2249.65
-2248.98
-2248.96
-2248.94
-2248.92
-2248.9
-2248.85
-2248.86
-2248.87
-2248.88
-2248.89
-2248.83
-2248.82
-2248.82
-2248.81
-2248.8
-2248.77
-2248.78
-2248.78
-2248.79
-2248.79
-2248.27
-2248.27
-2248.28
-2248.28
-2248.27
-2248.35
-2248.35
-2248.35
-2248.35
-2248.34
-2248.42
-2248.42
-2248.42
-2248.41
-2248.4
-2247.93
-2247.94
-2247.96
-2247.96
-2247.95
-2247.42
-2247.43
-2247.42
-2247.41
-2247.39
-2246.21
-2246.24
-2246.26
-2246.27
-2246.27
-2245.92
-2245.97
-2246.13
-2246.32
-2246.43
-2174.19
-2173.13
-2174.03
-2175.14
-2176.39
-1921
-1918.86
-1917.42
-1918.18
-1921.09
-1523.96
-1521.41
-1520.16
-1520.06
-1520.12
-1108.12
-1109.47
-1112.03
-1114.95
-1117.43
-693.441
-687.812
-681.303
-676.996
-675.024
-206.268
-209.391
-214.114
-220.965
-229.099
265.059
272.509
279.104
284.78
289.724
809.549
802.585
794.811
786.697
778.313
1304.75
1316.43
1327.75
1338.62
1348.22
1900.2
1884.81
1868.02
1850.31
1831.8
2333.39
2366.26
2397.05
2425.96
2453.02
2940.87
2896.09
2847.44
2794.39
2735.47
2920.47
3002.4
3076.37
3143.56
3205.2
3246.21
3177.96
3102.73
3019.04
2925.98
2912.74
3007.06
3091.49
3167.2
3236.11
3159.65
3098.79
3031.79
2957.48
2874.43
2859.42
2942.31
3016.86
3084.08
3145.14
3130.85
3069.65
3002.28
2927.62
2844.57
2828.27
2911.84
2987.03
3055.21
3116.83
3027.46
2978.46
2924.01
2863.33
2796.12
2783.37
2850.17
2910.61
2964.86
3013.78
2999.09
2950.19
2896.97
2839.83
2775.55
2617.27
2696.07
2767.11
2832.87
2892.88
2879.25
2820.08
2756.13
2688.53
2611.22
2432.75
2529.68
2618.65
2700.42
2774.8
2759.35
2688.13
2608.18
2519.39
2422.1
2331.64
2420.61
2502.22
2576.88
2644.36
2621.28
2555.24
2482.48
2402.27
2314.44
2254.74
2322.25
2384.54
2441.36
2492.56
2463.26
2413.84
2358.66
2297.72
2231.49
2049.53
2120.49
2186.54
2247.02
2301.55
2143.83
2079.83
2009.56
1932.95
1849.71
1746.96
1812.77
1873.34
1928.46
1978.35
1781.74
1732.63
1677.95
1617.78
1552.07
1358.7
1423.96
1484.27
1539.3
1589.13
1363.03
1311.54
1254.26
1191.35
1123.11
901.852
970.275
1033.3
1090.81
1143.01
882.865
830.778
773.059
709.784
641.18
393.03
461.466
523.996
580.881
632.671
332.611
283.576
229.573
170.409
105.919
-172.779
-109.435
-52.2084
-0.326356
47.0708
-298.72
-339.362
-383.618
-431.847
-484.604
-785.153
-737.511
-694.836
-657.249
-623.314
-1008.66
-1025.3
-1043.66
-1063.32
-1084.32
-1478.33
-1456.88
-1436.86
-1418.31
-1401.21
-1816.59
-1850.68
-1885.15
-1919.81
-1955.17
-2206.59
-2187.99
-2169.99
-2154.17
-2139.27
-2235.93
-2236.29
-2236.53
-2236.72
-2236.74
-2241.63
-2241.49
-2241.43
-2241.42
-2241.39
-2243.59
-2243.55
-2243.51
-2243.5
-2243.52
-2244.45
-2244.45
-2244.47
-2244.5
-2244.5
-2245.2
-2245.23
-2245.23
-2245.24
-2245.25
-2245.79
-2245.79
-2245.8
-2245.8
-2245.8
-2246.4
-2246.36
-2246.33
-2246.29
-2246.23
-2246.59
-2246.65
-2246.7
-2246.75
-2246.79
-2246.79
-2246.75
-2246.71
-2246.66
-2246.62
-2247.13
-2247.2
-2247.25
-2247.29
-2247.33
-2247.38
-2247.35
-2247.32
-2247.28
-2247.23
-2247.31
-2247.34
-2247.36
-2247.37
-2247.39
-2247.8
-2247.79
-2247.77
-2247.75
-2247.72
-2247.83
-2247.85
-2247.86
-2247.87
-2247.87
-2248.21
-2248.2
-2248.19
-2248.17
-2248.13
-2248.27
-2248.31
-2248.34
-2248.35
-2248.37
-2248.56
-2248.53
-2248.5
-2248.46
-2248.41
-2248.5
-2248.56
-2248.61
-2248.66
-2248.71
-2248.92
-2248.87
-2248.81
-2248.74
-2248.68
-2248.82
-2248.89
-2248.96
-2249.02
-2249.07
-2249.34
-2249.3
-2249.24
-2249.19
-2249.12
-2249.25
-2249.33
-2249.4
-2249.46
-2249.51
-2249.71
-2249.66
-2249.61
-2249.55
-2249.48
-2249.58
-2249.66
-2249.73
-2249.81
-2249.89
-2250.16
-2250.04
-2249.91
-2249.81
-2249.74
-2249.82
-2249.93
-2250.04
-2250.15
-2250.26
-2250.45
-2250.4
-2250.35
-2250.29
-2250.21
-2250.23
-2250.29
-2250.34
-2250.36
-2250.38
-2250.37
-2250.35
-2250.31
-2250.27
-2250.2
-2250.1
-2250.16
-2250.2
-2250.24
-2250.28
-2250.14
-2250.11
-2250.07
-2250.04
-2250
-2249.43
-2249.45
-2249.46
-2249.48
-2249.5
-2249.4
-2249.39
-2249.37
-2249.36
-2249.34
-2249.28
-2249.29
-2249.31
-2249.32
-2249.33
-2249.31
-2249.3
-2249.29
-2249.28
-2249.26
-2248.8
-2248.81
-2248.81
-2248.81
-2248.81
-2248.84
-2248.84
-2248.84
-2248.84
-2248.83
-2248.71
-2248.73
-2248.74
-2248.75
-2248.75
-2248.28
-2248.28
-2248.28
-2248.26
-2248.24
-2247.7
-2247.71
-2247.73
-2247.73
-2247.73
-2247.03
-2247.02
-2247.02
-2247.02
-2247.01
-2245.78
-2245.8
-2245.82
-2245.84
-2245.86
-2245.46
-2245.51
-2245.65
-2245.81
-2245.91
-2192.92
-2191.9
-2193.14
-2194.71
-2195.8
-1951.98
-1949.41
-1947.75
-1948.84
-1952.6
-1559.07
-1555.8
-1554.38
-1554.77
-1555.38
-1146.75
-1147.71
-1149.26
-1151.38
-1153.77
-730.951
-726.207
-721.281
-717.385
-715.49
-240.699
-243.621
-248.39
-255.458
-262.738
239.485
246.508
253.233
258.809
263.395
785.397
779.006
771.704
764.019
756.382
1282.7
1293.09
1303.28
1313.05
1321.68
1870.74
1857.4
1842.89
1827.52
1811.36
2324.78
2353.49
2380.24
2405.28
2428.94
2952.48
2908.34
2860.29
2808.03
2750.34
2951.47
3037.99
3116.47
3187.88
3253.55
3306.99
3232.43
3150.57
3061.05
2962.4
2949.26
3050.2
3141.9
3225.19
3301.14
3291.08
3214.35
3130.16
3037.68
2936.16
2899.62
2993.97
3078.47
3154.96
3225.28
3213.6
3142.8
3065.06
2979.87
2885.73
2871.05
2965.96
3052.08
3130.04
3201.03
3187.4
3116.25
3038.14
2951.78
2856.08
2810.62
2895.83
2972
3040.47
3102.41
3089.01
3027
2958.61
2882.2
2797.23
2785.17
2868.53
2944.87
3014.01
3077.15
2989.33
2940.12
2887.54
2830.69
2767.69
2757.96
2821.5
2878.91
2932.22
2982.01
2864.7
2807.95
2746.99
2679.2
2601.31
2583.95
2664.58
2735.06
2796.58
2852.83
2739.37
2671.5
2595.48
2508.32
2410.14
2392.6
2489.89
2576.17
2651.93
2719.89
2593.55
2530.89
2461.58
2384.47
2298.9
2276.45
2361.85
2440.96
2513.53
2578.47
2441.12
2393.2
2339.99
2279.91
2214.01
2033.17
2101.65
2164.49
2222.45
2274.22
2117.01
2055.26
1986.88
1911.36
1829.29
1720.04
1785.3
1845.01
1899.13
1948.05
1751.54
1703.16
1649.73
1591.03
1526.61
1327.91
1392.73
1452.65
1507.36
1556.93
1332.79
1281.59
1224.92
1162.85
1095.2
870.344
938.531
1001.55
1059.16
1111.52
853.266
801.063
743.39
680.307
611.613
359.886
428.675
491.652
548.993
601.215
301.307
251.973
197.733
138.388
73.5592
-210.262
-146.003
-87.9411
-35.4148
12.4546
-335.724
-376.62
-421.171
-469.72
-522.908
-831.815
-783.105
-739.702
-701.05
-665.89
-1057.15
-1073.95
-1092.36
-1112.03
-1133.09
-1536.61
-1515.15
-1494.91
-1476.11
-1458.62
-1875.71
-1908.48
-1941.09
-1973.41
-2005.83
-2221.42
-2206.94
-2192.32
-2180.3
-2169.6
-2238.43
-2238.63
-2238.8
-2238.95
-2239
-2242.03
-2241.94
-2241.9
-2241.9
-2241.87
-2243.48
-2243.46
-2243.42
-2243.37
-2243.37
-2244.32
-2244.32
-2244.36
-2244.41
-2244.41
-2245.14
-2245.16
-2245.14
-2245.13
-2245.13
-2245.75
-2245.77
-2245.79
-2245.8
-2245.81
-2246.4
-2246.35
-2246.3
-2246.25
-2246.18
-2246.61
-2246.67
-2246.73
-2246.78
-2246.83
-2247.31
-2247.26
-2247.2
-2247.14
-2247.05
-2247.1
-2247.18
-2247.24
-2247.28
-2247.33
-2247.66
-2247.61
-2247.56
-2247.5
-2247.44
-2247.52
-2247.57
-2247.62
-2247.66
-2247.7
-2247.76
-2247.73
-2247.7
-2247.67
-2247.62
-2247.95
-2248.01
-2248.05
-2248.08
-2248.11
-2248.15
-2248.13
-2248.11
-2248.08
-2248.03
-2248.35
-2248.38
-2248.42
-2248.45
-2248.48
-2248.55
-2248.53
-2248.5
-2248.46
-2248.43
-2248.5
-2248.54
-2248.59
-2248.63
-2248.66
-2248.78
-2248.74
-2248.68
-2248.62
-2248.57
-2248.87
-2248.93
-2248.99
-2249.04
-2249.09