/*--------------------------------*- C++ -*----------------------------------*\
| =========                 |                                                 |
| \\      /  F ield         | OpenFOAM: The Open Source CFD Toolbox           |
|  \\    /   O peration     | Version:  2306                                  |
|   \\  /    A nd           | Website:  www.openfoam.com                      |
|    \\/     M anipulation  |                                                 |
\*---------------------------------------------------------------------------*/
FoamFile
{
    version     2.0;
    format      ascii;
    arch        "LSB;label=32;scalar=64";
    class       volScalarField;
    location    "4";
    object      p_rgh;
}
// * * * * * * * * * * * * * * * * * * * * * * * * * * * * * * * * * * * * * //

dimensions      [1 -1 -2 0 0 0 0];

internalField   nonuniform List<scalar> 
143976
(
-2223.4
-2249.49
-2251.97
-2245.51
-2243.55
-2245.75
-2178.96
-2223.21
-2223.59
-2225.18
-2222.69
-2223.07
-2226.91
-2226.56
-2224.65
-2191.23
-2246.89
-2250.47
-2252.48
-2252.37
-2246.45
-2290.05
-2286.55
-2283.55
-2280.06
-2260.46
-2294.57
-2295.94
-2305.46
-2310.55
-2308.45
-2286.2
-2285.48
-2284.81
-2277.72
-2276.87
-2280.83
-2290.69
-2292.35
-2293.17
-2292.96
-2263.04
-2265.12
-2265.93
-2260.16
-2249.44
-2220.31
-2234.58
-2235.8
-2237.15
-2234.82
-2201.8
-2204.51
-2205.59
-2180.24
-2143.05
-2117.55
-2158.12
-2171.9
-2173.63
-2176.04
-2160.34
-2157.81
-2155.75
-2117.76
-2101.02
-2115.32
-2154.98
-2165
-2166.37
-2164.26
-2184.81
-2188.01
-2166.95
-2139.75
-2129.2
-2163.37
-2119.46
-2113.76
-2111.01
-2109
-2097.92
-2069.18
-2097.07
-2114.13
-2114.84
-2115.95
-2116.18
-2123.14
-2124.86
-2124.3
-2123.97
-2122.08
-2167.27
-2184.1
-2184.98
-2184.85
-2175.82
-2200.17
-2205.08
-2204.36
-2203.84
-2202.82
-2222.35
-2228.78
-2227.36
-2217.35
-2225.58
-2283.45
-2278.75
-2278.34
-2277.6
-2271.35
-2297.86
-2309.61
-2312.8
-2315.9
-2318.98
-2342.96
-2338.99
-2335.24
-2331.35
-2309.21
-2342.89
-2346.64
-2360.41
-2361.92
-2360.3
-2344.85
-2342.42
-2340.28
-2338.75
-2319.26
-2332.99
-2342.38
-2344.35
-2346.8
-2349.73
-2318.57
-2319.8
-2320.08
-2316.56
-2304.82
-2322.17
-2332.58
-2334.28
-2334.72
-2333.61
-2314.68
-2311.83
-2308.9
-2306.34
-2298.45
-2268.91
-2282.68
-2285.48
-2285.34
-2283.7
-2261.57
-2259.41
-2257.39
-2255.59
-2243.69
-2191.5
-2220.88
-2231.07
-2230.41
-2228.21
-2204.56
-2202.18
-2200.51
-2199.42
-2164.18
-2160.49
-2167.63
-2168.85
-2170.52
-2172.7
-2137.15
-2135.15
-2133.29
-2130.61
-2106.83
-2080.93
-2079.83
-2070.58
-2063.25
-2063.3
-2030.09
-2017.81
-2017.87
-2032.58
-2035.77
-2044.18
-2044.96
-2045.11
-2046.93
-2048.69
-2050.48
-2048.43
-2047.93
-2048.3
-2048.68
-2059.19
-2058.15
-2057.26
-2057.48
-2059.46
-2139.53
-2139.24
-2138.77
-2139.18
-2139.56
-2153.64
-2158.91
-2158.17
-2150.2
-2156
-2049.65
-2132.6
-2179.97
-2179.48
-2153.87
-2217.03
-2256.48
-2257.29
-2193.09
-2070.33
-2266.71
-2279.19
-2309.36
-2309.9
-2294.41
-2330.75
-2338.73
-2341.21
-2343.92
-2348.94
-2371.11
-2366.83
-2362.5
-2358.04
-2346.91
-2353.44
-2373.15
-2377.3
-2380.87
-2384.93
-2403.61
-2405.67
-2406.03
-2402.21
-2393.9
-2369.25
-2385.08
-2386.75
-2387.53
-2388.62
-2392.41
-2390.7
-2390.69
-2388.9
-2376.87
-2354.54
-2366.97
-2368.17
-2368.57
-2367.69
-2379.46
-2378.34
-2378.3
-2377.28
-2366.13
-2345.13
-2353.32
-2355.98
-2359.09
-2362.47
-2379.97
-2373.95
-2371.85
-2369.63
-2359.15
-2340.58
-2352.19
-2353.64
-2354.3
-2354.06
-2337.68
-2334.89
-2331.96
-2329.38
-2321.07
-2294.33
-2309.64
-2311.86
-2311.89
-2310.62
-2291.94
-2289.82
-2287.86
-2286.15
-2269.81
-2238.99
-2259.85
-2265.9
-2265.45
-2263.82
-2244.03
-2241.92
-2240.45
-2239.33
-2225.51
-2212.05
-2214.13
-2215.1
-2216.51
-2218.54
-2181.97
-2182.32
-2182.02
-2181.72
-2181.31
-2127.12
-2127.44
-2127.07
-2125.71
-2118.8
-2086.63
-2092.13
-2094.62
-2095.65
-2095.55
-2049.23
-2050.18
-2050.97
-2051.14
-2052.4
-1994.06
-1993.95
-1994.1
-1993.86
-1993.45
-1945.14
-1945.64
-1946.02
-1945.71
-1947.19
-1955.07
-1952.9
-1951.19
-1950.34
-1950
-1990.46
-1988.73
-1979.83
-1968.11
-1962.95
-2020.04
-2027.83
-2034.5
-2038.31
-2038.81
-1999.59
-1937.67
-2098
-2126.25
-2159.78
-2178.83
-2190.19
-2107.99
-2079.67
-2032.99
-1982.97
-1950.91
-1857.04
-1856.57
-1853.68
-1857.96
-1864.31
-1872.15
-1851.09
-1828.88
-1815.75
-1812.52
-1967.85
-1965.28
-1964.56
-1965.18
-1966.35
-1962
-1961.2
-1960.79
-1961.57
-1964.03
-1966.38
-1964.32
-1963.76
-1964.43
-1965.5
-1975.66
-1974.63
-1973.87
-1974.19
-1975.78
-2073.71
-2071.66
-2072.81
-2073.67
-2073.76
-2088.76
-2090.71
-2090.19
-2079.1
-2073.58
-2068.82
-2083.43
-2104.95
-2106.48
-2104.57
-2158.87
-2196.7
-2193.73
-2103.55
-1965.72
-1954.27
-2178.59
-2281.14
-2277.11
-2197.63
-2293.31
-2337.19
-2339.26
-2299.67
-2187.66
-2380.09
-2361.81
-2367.26
-2369.99
-2366.19
-2376.59
-2382.07
-2383.88
-2392.86
-2397.81
-2412.34
-2407.8
-2403
-2397.99
-2377.68
-2389.06
-2406.02
-2412.97
-2416.44
-2420.21
-2441.67
-2443.16
-2443.63
-2437.54
-2426
-2407.97
-2413.26
-2423.89
-2427.28
-2428.56
-2434.16
-2432.42
-2431.38
-2428.89
-2413.94
-2403.2
-2411.02
-2411.46
-2408.97
-2407.56
-2416.69
-2416.72
-2418.85
-2417.59
-2409.93
-2386.06
-2396.86
-2399.75
-2400.65
-2402.53
-2413.72
-2411.98
-2410.94
-2407.7
-2395.83
-2378.09
-2390.67
-2391.38
-2388.33
-2393.22
-2408.73
-2410.68
-2414.1
-2412.8
-2399.08
-2383.2
-2395.32
-2397.46
-2396.4
-2396.84
-2381.5
-2382.68
-2382.92
-2381.39
-2368.02
-2352.49
-2362.52
-2364.61
-2366.94
-2369.85
-2347.63
-2348.6
-2348.51
-2346.39
-2329.41
-2307.97
-2326.95
-2328.39
-2330.07
-2331.92
-2308.86
-2310.3
-2310.76
-2305.7
-2286.84
-2282.06
-2287.78
-2289.16
-2289.39
-2292.14
-2271.4
-2269.3
-2268.01
-2267.3
-2265.67
-2239.12
-2240.03
-2240.69
-2241.5
-2236.74
-2215.52
-2214.21
-2217.36
-2215.72
-2209.53
-2136.24
-2141.99
-2141.15
-2140.38
-2150.57
-2109.93
-2105.73
-2104.77
-2106.22
-2103.32
-2103.83
-2100.76
-2096.46
-2089.98
-2091.45
-2011.54
-2008.71
-2018.28
-2024.26
-2027.06
-1944.14
-1941.48
-1934.62
-1928.79
-1930.29
-1877.26
-1879.93
-1883.55
-1889
-1891.01
-1874.57
-1849.57
-2223.8
-2244.24
-2243.42
-2245.1
-2245.04
-2244.52
-2243.31
-2243.59
-2235.45
-2226.41
-2209.54
-2171.94
-2176.43
-2184.47
-2190.29
-2196.97
-1810.27
-1796.1
-1784.39
-1782.39
-1787.55
-1791.87
-1786.72
-1788.15
-1797.26
-1807.94
-1823.37
-1814.25
-1806.26
-1804.21
-1808.24
-1838.79
-1835.49
-1837.59
-1844
-1850.71
-1991.02
-1990.3
-1989.69
-1989.8
-1990.83
-2007.76
-2007.28
-2007.38
-2007.9
-2008.41
-2028.18
-2027.65
-2027.12
-2027
-2027.4
-2089.36
-2098.55
-2120.83
-2123.56
-2122.95
-2177.99
-2210.79
-2203.59
-2094.83
-1976.68
-1962.01
-2147.54
-2297.53
-2285.36
-2192.14
-2236.64
-2345.6
-2363.15
-2312.66
-2127.48
-2399.54
-2383.59
-2396.75
-2394.3
-2383.29
-2408.3
-2410.57
-2409.4
-2420.15
-2424.87
-2435.87
-2430.56
-2423.52
-2417.58
-2410.31
-2406.66
-2426.65
-2431.34
-2436.04
-2441.3
-2461.34
-2462.22
-2462.35
-2461.27
-2452.78
-2465.64
-2471.49
-2472.11
-2472.44
-2472.46
-2448.26
-2448.91
-2448.91
-2448.4
-2433.56
-2441.89
-2454.66
-2456.36
-2457.58
-2457.83
-2444.24
-2441.18
-2439.18
-2436.7
-2421.62
-2428.65
-2443.29
-2446.67
-2449.71
-2453.46
-2426.12
-2426.41
-2427.83
-2426.13
-2417.02
-2431.91
-2442.54
-2444.61
-2444.08
-2443.33
-2432.01
-2430.88
-2429.99
-2426.74
-2414.62
-2440.02
-2451.88
-2454.88
-2455.01
-2454.64
-2436.05
-2442.05
-2443.77
-2441.32
-2428.06
-2415.98
-2427.91
-2430.3
-2426.34
-2424.52
-2414.97
-2418.81
-2418.86
-2417.08
-2401.98
-2388.94
-2402.44
-2403.98
-2404.44
-2405.2
-2391.33
-2392.05
-2392.02
-2389.85
-2370.02
-2355.25
-2374.89
-2376.01
-2377.31
-2378.74
-2361.02
-2351.74
-2341.7
-2357.15
-2346.23
-2339.58
-2336.95
-2314.68
-2337.1
-2346.54
-2329.55
-2327.16
-2324.92
-2323.82
-2322.59
-2300.2
-2301.9
-2298.64
-2305.23
-2299.01
-2269.8
-2246.05
-2265.39
-2267.27
-2253.47
-2158.99
-2172.07
-2162.26
-2154.46
-2173.84
-2178.95
-2182.66
-2172.6
-2166.74
-2167.04
-2146.83
-2145.2
-2144.7
-2145.43
-2146.98
-2241.11
-2243.06
-2243.48
-2243.63
-2243.57
-2242.92
-2241.11
-2240.24
-2241.02
-2241.88
-2205.29
-2217.39
-2221.73
-2226.34
-2230.14
-2244.98
-2244.87
-2244.64
-2245.17
-2245.13
-2245.32
-2245.42
-2245.16
-2245.06
-2244.86
-2243.67
-2244.42
-2244.9
-2245.71
-2245.75
-2245.8
-2245.79
-2245.76
-2245.59
-2243.62
-2245.62
-2245.74
-2245.81
-2245.9
-2245.98
-2246.27
-2246.23
-2246.16
-2246.09
-2246.06
-2246.23
-2246.26
-2246.3
-2246.35
-2246.37
-2133.83
-2135.55
-2143.55
-2149.02
-2153.1
-2154.57
-2150.44
-2145.19
-2139.44
-2140.05
-2172.95
-2172.35
-2175.24
-2177.51
-2179.89
-2204.86
-2204.31
-2203.33
-2201.13
-2200.93
-1871.32
-1868.22
-1870.05
-1875.36
-1880.37
-1909.75
-1905.26
-1900.71
-1898.99
-1901.74
-1931.23
-1928.98
-1930.98
-1935.19
-1939.34
-2049.4
-2048.79
-2048.23
-2048.22
-2048.89
-2131.33
-2127.04
-2138.79
-2142.18
-2141.62
-2212.75
-2226.34
-2214.37
-2105.2
-2035.03
-1976.93
-2120.76
-2305.77
-2292.58
-2204.18
-2205.03
-2339.83
-2383.47
-2298.72
-2088.72
-2397.64
-2406.71
-2424.21
-2399.34
-2337.69
-2437.34
-2437.65
-2435.99
-2441.88
-2450.33
-2457.26
-2452.11
-2442.51
-2442.26
-2437.69
-2425.23
-2447.43
-2452.09
-2456.79
-2461.02
-2466.84
-2462.08
-2458.55
-2450.27
-2418.97
-2457.4
-2475.18
-2490.95
-2490.96
-2489.85
-2479.11
-2477.81
-2472.34
-2457.06
-2449.21
-2476.51
-2481.85
-2487.14
-2488.41
-2490.59
-2505.09
-2502.08
-2499.68
-2494.29
-2484.28
-2474.8
-2480.15
-2482.28
-2484.01
-2484.77
-2492.24
-2490.7
-2488.29
-2485.58
-2478.85
-2447.27
-2460.51
-2462.57
-2464.32
-2465.13
-2476.88
-2476.18
-2474.34
-2472.1
-2457.93
-2442.33
-2456.22
-2460.48
-2463.83
-2467.11
-2484.61
-2482.34
-2479.08
-2474.79
-2461.17
-2452.9
-2463.98
-2466.54
-2466.11
-2465.03
-2495.09
-2494.36
-2493.62
-2490.66
-2479.41
-2471.58
-2482.19
-2484.9
-2485.89
-2485.56
-2476.48
-2478.61
-2477.44
-2474.89
-2462.2
-2454.65
-2465.22
-2467.07
-2462.89
-2460.06
-2457.23
-2460.15
-2459.64
-2456.95
-2440.12
-2428.25
-2447.34
-2448.34
-2448.38
-2448.2
-2440.23
-2440.54
-2440.43
-2436.95
-2406.87
-2408.07
-2428.32
-2429.12
-2429.95
-2430.95
-2417.96
-2393.74
-2371.2
-2408.01
-2404.72
-2386.44
-2363.62
-2364.2
-2389.21
-2406.41
-2393.26
-2390.38
-2384.86
-2380.64
-2372.75
-2366.3
-2369.62
-2372.05
-2376.21
-2370.6
-2327.26
-2285.16
-2305.13
-2315.77
-2314.75
-2187.83
-2197.31
-2180.05
-2172.17
-2197.68
-2202.28
-2209.14
-2197.85
-2186.22
-2188.13
-2242.13
-2242.33
-2242.57
-2242.5
-2241.43
-2240.96
-2242.52
-2242.83
-2242.72
-2242.41
-2244.19
-2244.32
-2244.48
-2244.1
-2242.74
-2243.01
-2244.81
-2245.02
-2245
-2244.96
-2243.66
-2245.05
-2245.1
-2244.91
-2244.74
-2245.29
-2245.1
-2245.21
-2245.13
-2245.56
-2245.05
-2244.09
-2244.31
-2245.33
-2245.52
-2245.24
-2244.14
-2244.15
-2245.7
-2245.71
-2243.77
-2244.64
-2244.13
-2244.15
-2245.18
-2245.51
-2245.15
-2244.72
-2243.3
-2242.94
-2244.14
-2245.42
-2245.55
-2245.65
-2245.71
-2245.43
-2245.4
-2245.38
-2245.63
-2245.57
-2245.63
-2245.56
-2245.59
-2245.77
-2245.77
-2245.78
-2245.79
-2245.76
-2245.67
-2245.62
-2246.2
-2246.22
-2246.25
-2246.27
-2246.26
-2245.99
-2246.03
-2246.03
-2246.01
-2245.98
-2245.8
-2245.81
-2245.83
-2245.83
-2245.79
-2245.66
-2245.68
-2245.67
-2245.66
-2245.65
-2222.5
-2222.42
-2221.61
-2219.92
-2219.47
-2231.55
-2231.99
-2233.36
-2233.86
-2233.6
-2240.76
-2241.26
-2241.13
-2240.09
-2239.52
-1962.94
-1960.71
-1962.86
-1966.99
-1970.4
-2071.25
-2070.54
-2069.88
-2069.85
-2070.68
-2154.7
-2150.25
-2157.96
-2161.9
-2161.22
-2238.2
-2244.1
-2225.56
-2115.9
-2054.67
-1993.93
-2099.29
-2312.69
-2302.03
-2252.98
-2206.07
-2324.27
-2398.33
-2302.82
-2070.13
-2404.07
-2439.66
-2445.17
-2369.55
-2263.66
-2457.39
-2452.58
-2463.04
-2467.88
-2472.57
-2476.55
-2471.97
-2466.21
-2464.52
-2461.31
-2446.66
-2464.4
-2469.55
-2474.56
-2479.31
-2481.49
-2477.57
-2474.48
-2471.33
-2434.82
-2465.63
-2484.65
-2500.89
-2500.6
-2499.88
-2516.29
-2516.9
-2517.63
-2517.77
-2495.48
-2480.43
-2501.33
-2503.14
-2502.9
-2502.37
-2517.79
-2517.78
-2516.92
-2515.91
-2496.16
-2503
-2522.66
-2524.29
-2525.77
-2526.31
-2513.33
-2509.74
-2506.71
-2500.19
-2486.31
-2493.45
-2508.75
-2515.8
-2519.06
-2522.45
-2502.19
-2500.39
-2498.01
-2495.01
-2486.49
-2498.23
-2508.41
-2511.33
-2513.57
-2515.31
-2492.52
-2492.33
-2490.63
-2488.43
-2473.53
-2494.55
-2509.21
-2511.61
-2513.29
-2513.46
-2507.4
-2505.51
-2502.6
-2498.62
-2485
-2511.72
-2526.03
-2529.01
-2531.91
-2533.81
-2526.44
-2525.11
-2523.41
-2520.31
-2508.77
-2505.48
-2514.91
-2517.41
-2519.58
-2519.95
-2514.95
-2514.51
-2513.18
-2510.88
-2499.31
-2496.65
-2504.63
-2506.08
-2506.71
-2507.25
-2502.95
-2503.02
-2502.36
-2498.47
-2484.38
-2467.57
-2494.41
-2494.79
-2494.97
-2495.73
-2491.24
-2491.03
-2490.83
-2476.43
-2452.96
-2456.36
-2484.94
-2485.31
-2485.45
-2485.84
-2478.39
-2473.97
-2427.16
-2402.38
-2450.96
-2393.18
-2395.27
-2430.17
-2469.04
-2470.35
-2463.18
-2460.35
-2457.64
-2448.09
-2432.83
-2442.1
-2447.17
-2448.5
-2452.08
-2440.95
-2388.06
-2332.46
-2356.79
-2371.55
-2364.04
-2210.09
-2223.17
-2208.56
-2198.26
-2217.77
-2224.08
-2227.91
-2220.1
-2213.64
-2215.55
-2242.29
-2242.28
-2242.47
-2242.5
-2242.12
-2243.06
-2243.44
-2243.43
-2243.43
-2243.62
-2243.78
-2243.69
-2243.8
-2243.68
-2242.8
-2244.35
-2244.47
-2244.5
-2244.53
-2244.57
-2244.93
-2244.97
-2244.99
-2244.92
-2244.82
-2245.2
-2245.29
-2245.32
-2245.32
-2245.3
-2245.29
-2245.33
-2245.34
-2245.34
-2245.27
-2245.18
-2244.31
-2245.16
-2245.49
-2245.54
-2245.48
-2245.5
-2245.34
-2244.55
-2244.27
-2243.89
-2243.84
-2244.93
-2245.6
-2245.63
-2244.19
-2244.73
-2243.81
-2244.54
-2244.99
-2245.73
-2245.63
-2245.2
-2245.16
-2242.98
-2242.91
-2245.15
-2245.36
-2245.39
-2245.62
-2245.78
-2245.75
-2245.66
-2245.57
-2244.68
-2245.61
-2245.51
-2245.54
-2245.7
-2245.75
-2245.38
-2245.8
-2245.75
-2245.62
-2245.61
-2245.54
-2245.67
-2245.78
-2245.79
-2245.51
-2245.24
-2245.79
-2245.78
-2245.71
-2245.57
-2245.56
-2245.68
-2245.73
-2245.74
-2245.17
-2245.42
-2245.65
-2245.64
-2245.61
-2245.57
-2245.54
-2245.55
-2245.56
-2245.55
-2245.49
-2245.54
-2245.55
-2245.54
-2245.54
-2245.53
-2245.39
-2245.39
-2245.39
-2245.39
-2245.4
-2245.21
-2245.19
-2245.18
-2245.22
-2245.22
-2244.97
-2245.09
-2245.2
-2244.5
-2244.37
-1996.77
-1994.61
-1995.73
-1999.75
-2003.19
-2093.89
-2093.01
-2092.13
-2091.89
-2092.89
-2158.7
-2151.04
-2170.23
-2184.09
-2183.39
-2259.07
-2264.47
-2212.23
-2077.95
-2016.48
-2006.82
-2094.21
-2299.09
-2306.78
-2298.51
-2196.26
-2285.08
-2408.14
-2348.98
-2142.75
-2450.81
-2461.86
-2457.5
-2314.95
-2181.23
-2444.07
-2443.01
-2480.56
-2483.17
-2486.6
-2491.12
-2487.4
-2484.39
-2481.84
-2479.67
-2476.23
-2481.57
-2485.33
-2489.28
-2493.39
-2493.36
-2489.34
-2486.27
-2483.46
-2452.45
-2470.45
-2491.46
-2513.24
-2512.88
-2511.99
-2528.98
-2529.78
-2530.51
-2531.38
-2513.24
-2537.67
-2552.48
-2552.76
-2552.75
-2552.31
-2535.74
-2535.91
-2535.77
-2535.4
-2517.18
-2527.25
-2545.49
-2546.63
-2547.55
-2548.05
-2558.47
-2557.67
-2556.21
-2554.4
-2535.64
-2510.81
-2530.44
-2532.54
-2534.33
-2534.95
-2544.78
-2544.08
-2542.12
-2539.55
-2520.19
-2504.42
-2519.09
-2526.94
-2530.23
-2533.47
-2547.78
-2544.65
-2541.36
-2533.01
-2518.76
-2514.49
-2525.61
-2528.47
-2530.79
-2532.78
-2554.21
-2551.38
-2548.9
-2546.29
-2534.46
-2518.55
-2533.09
-2535.48
-2537.33
-2538.51
-2565.29
-2563.51
-2561.54
-2559.57
-2544.63
-2540.93
-2554.38
-2557.07
-2560.07
-2562.4
-2557.76
-2556.47
-2554.53
-2552.13
-2541.64
-2541.13
-2548.46
-2550.91
-2553.27
-2554.52
-2552.29
-2551.3
-2549.78
-2547.34
-2537.59
-2537.34
-2544.34
-2545.71
-2547.32
-2548.72
-2547.17
-2546.15
-2545.26
-2541.9
-2533.31
-2536.88
-2541.61
-2541.8
-2541.97
-2542.46
-2542.83
-2542.12
-2540.6
-2518.27
-2508.95
-2453.79
-2528.12
-2541.39
-2541.06
-2540.98
-2539.92
-2538.91
-2503.29
-2450.93
-2449.13
-2460.02
-2487
-2532.09
-2536.08
-2537.06
-2539.31
-2536.74
-2534.51
-2532.23
-2521.82
-2527.9
-2534.02
-2517.51
-2512.34
-2503.88
-2425.73
-2372.45
-2403.05
-2416.17
-2413.3
-2229.78
-2238.81
-2230.51
-2219.11
-2229.92
-2235.16
-2236.5
-2235.59
-2234.93
-2235.59
-2242.35
-2242
-2242.08
-2242.54
-2242.45
-2243.13
-2243.45
-2243.42
-2243.31
-2243.45
-2243.82
-2243.81
-2243.99
-2243.99
-2243.92
-2243.9
-2244.03
-2244.09
-2244.16
-2244.26
-2244.56
-2244.53
-2244.44
-2244.29
-2244.06
-2244.55
-2244.71
-2244.76
-2244.81
-2244.83
-2245.11
-2245.12
-2245.11
-2245.04
-2244.93
-2245.01
-2245.13
-2245.14
-2245.11
-2245.1
-2245.17
-2245.27
-2245.33
-2245.38
-2245.37
-2245.38
-2245.39
-2245.33
-2245.3
-2245.21
-2245.42
-2245.09
-2245.32
-2245.54
-2245.09
-2243.68
-2244.96
-2245.43
-2245.42
-2245.27
-2244.17
-2245.34
-2245.62
-2244.91
-2243.95
-2245.55
-2245.41
-2245.5
-2245.53
-2245.39
-2244.54
-2245.78
-2245.81
-2245.84
-2245.86
-2245.86
-2245.87
-2245.82
-2244.74
-2244.37
-2245.28
-2245.54
-2245.71
-2245.79
-2245.81
-2245.71
-2245.76
-2245.57
-2245.33
-2245.22
-2245.28
-2245.48
-2245.65
-2245.66
-2245.66
-2245.5
-2245.53
-2245.52
-2245.5
-2245.45
-2245.52
-2245.64
-2245.69
-2245.68
-2245.6
-2245.51
-2245.56
-2245.56
-2245.56
-2245.55
-2245.46
-2245.46
-2245.45
-2245.44
-2245.43
-2245.37
-2245.26
-2245.37
-2245.4
-2245.4
-2245.47
-2245.48
-2245.5
-2245.4
-2245.38
-2245.44
-2245.42
-2245.45
-2245.44
-2245.43
-2245.49
-2245.44
-2245.34
-2245.43
-2245.51
-2245.09
-2244.84
-2244.29
-2244.88
-2245.13
-2245.48
-2245.54
-2245.64
-2245.68
-2245.88
-2032.46
-2029.87
-2028.88
-2032.19
-2035.2
-2117.61
-2116.41
-2115.16
-2113.87
-2115.29
-2136.01
-2136.38
-2165.13
-2208.09
-2209.29
-2287.64
-2276.46
-2154.68
-2041.64
-2040.62
-2032.05
-2169.74
-2285.28
-2300.84
-2319.39
-2154.19
-2226.49
-2427.2
-2428.82
-2347.09
-2481.03
-2477.09
-2465
-2282.74
-2135.08
-2336.46
-2447.51
-2488.71
-2495.74
-2498.44
-2502.58
-2498.96
-2493.5
-2493.41
-2492.07
-2490.02
-2493.09
-2496.14
-2498.66
-2503.92
-2506.8
-2503.18
-2499.96
-2494.25
-2492.65
-2496.48
-2490.04
-2506.87
-2508.88
-2511.99
-2530.32
-2531.54
-2527.39
-2495.72
-2478.9
-2469.11
-2473.14
-2493.47
-2520.37
-2520.91
-2534.14
-2533.73
-2534.51
-2528.5
-2516.41
-2552.67
-2555.98
-2555.35
-2554.7
-2555.05
-2571.56
-2570.92
-2571.28
-2571.59
-2570.28
-2553.87
-2566.91
-2567.15
-2568.32
-2568.69
-2581.91
-2581.21
-2578.6
-2578.39
-2570.01
-2584.67
-2588.02
-2588.82
-2592
-2593.03
-2568.13
-2567.02
-2565.2
-2562.93
-2545.89
-2560.55
-2572.53
-2575.19
-2577.29
-2578.87
-2557.01
-2556.03
-2554.21
-2551.68
-2532.19
-2548.17
-2566.44
-2568.66
-2570.53
-2572.17
-2565.33
-2562.09
-2558.14
-2552.94
-2536.05
-2557.35
-2575.52
-2578.08
-2582.07
-2586.07
-2577.85
-2574.52
-2571.9
-2569.42
-2559.21
-2586.52
-2594.14
-2597.1
-2599.96
-2602.32
-2592.75
-2590.92
-2588.69
-2586.56
-2573.64
-2571.07
-2582.55
-2585.28
-2588.41
-2591.11
-2589.13
-2587.8
-2585.64
-2583.39
-2574.61
-2575.65
-2580.98
-2583.6
-2586.01
-2587.89
-2588.8
-2587.52
-2585.64
-2583.15
-2574.55
-2575.41
-2582.73
-2584.37
-2586.21
-2587.62
-2590.07
-2588.63
-2587.26
-2585.71
-2578.08
-2586.27
-2587.2
-2587.7
-2588.14
-2588.6
-2594.04
-2592.76
-2584.23
-2571.97
-2589.46
-2501.68
-2573.28
-2595.98
-2595.7
-2595.53
-2602.6
-2600.69
-2585.15
-2510.74
-2509.43
-2560.54
-2585.52
-2604.43
-2605.02
-2605.53
-2617.4
-2615.58
-2613.71
-2611.92
-2610
-2619.11
-2610.26
-2575.52
-2558.92
-2551.26
-2417.85
-2381.96
-2412.39
-2427.85
-2438.21
-2237.62
-2240.17
-2234.78
-2230.32
-2236.6
-2238.76
-2239.18
-2239.37
-2239.43
-2239.56
-2242.68
-2242.46
-2242.59
-2242.77
-2242.74
-2243.4
-2243.47
-2243.45
-2243.34
-2243.39
-2243.7
-2243.75
-2243.9
-2243.92
-2243.86
-2244.02
-2244.11
-2244.12
-2243.94
-2243.85
-2244.06
-2244.15
-2244.32
-2244.3
-2244.26
-2244.46
-2244.44
-2244.45
-2244.39
-2243.99
-2244.65
-2244.66
-2244.51
-2244.28
-2244.16
-2244.62
-2244.82
-2244.81
-2244.86
-2244.86
-2244.88
-2244.91
-2244.94
-2244.95
-2244.92
-2245.18
-2245.19
-2245.18
-2245.14
-2245.11
-2245.01
-2245.06
-2245.13
-2245.17
-2245.22
-2245.35
-2245.35
-2245.33
-2245.28
-2245.15
-2245.27
-2244.6
-2245.31
-2245.45
-2245.33
-2245.62
-2245.12
-2244.73
-2244.71
-2244.7
-2244.18
-2244.63
-2245.4
-2245.57
-2245.58
-2245.73
-2245.73
-2245.52
-2244.8
-2244.27
-2241.51
-2241.22
-2241.22
-2242.19
-2245.35
-2245.86
-2245.83
-2245.84
-2245.7
-2244.93
-2244.5
-2245.63
-2245.76
-2245.76
-2245.75
-2245.72
-2245.72
-2245.56
-2244.86
-2244.55
-2244.67
-2244.79
-2244.99
-2245.07
-2245.17
-2244.51
-2245.04
-2244.64
-2243.83
-2243.27
-2244.15
-2244.53
-2245.17
-2244.78
-2244.07
-2244.82
-2245.27
-2245.45
-2245.45
-2245.45
-2245.41
-2245.42
-2245.35
-2244.95
-2245.18
-2245.39
-2245.22
-2245.38
-2245.38
-2245.38
-2245.35
-2245.36
-2245.37
-2245.37
-2245.37
-2245.4
-2245.35
-2245.39
-2245.38
-2245.38
-2245.42
-2245.42
-2245.43
-2245.43
-2245.44
-2245.34
-2244.53
-2245.15
-2245.53
-2245.5
-2245.01
-2244.93
-2243.82
-2244.78
-2245.49
-2243.95
-2243.83
-2243.98
-2244.39
-2244.73
-2245.39
-2245.43
-2245.55
-2245.72
-2245.87
-2061.93
-2060.65
-2062.71
-2064.98
-2068.12
-2143.2
-2141.54
-2139.77
-2129.52
-2131.04
-2150.03
-2148.09
-2163.29
-2226.85
-2239.21
-2314.17
-2271.71
-2133.55
-2074.71
-2073.07
-2108.11
-2261.92
-2339.59
-2287.74
-2264.2
-2170.94
-2226.38
-2456.41
-2461.82
-2437.96
-2497.57
-2493.39
-2488.99
-2317.83
-2140.45
-2196.38
-2478.73
-2499.02
-2509.09
-2512.09
-2515.8
-2512.63
-2499.41
-2503.12
-2422.19
-2466.71
-2501.41
-2501.31
-2512.88
-2516.54
-2518.59
-2513.02
-2510.77
-2506.39
-2466.17
-2476.25
-2514.63
-2516.6
-2518.37
-2520.11
-2535.49
-2536.47
-2536.39
-2495.37
-2475.02
-2430.36
-2429.32
-2462.64
-2532.28
-2545.43
-2542.84
-2543.85
-2544.96
-2531.3
-2498.66
-2534.79
-2559.53
-2564.79
-2563.93
-2562.98
-2578.57
-2578.55
-2576.14
-2555.55
-2520.31
-2489.76
-2542.45
-2580.69
-2586.78
-2592.1
-2586.6
-2585.74
-2585.59
-2585.58
-2584.98
-2590.37
-2594.09
-2597.77
-2599.11
-2600.28
-2612.44
-2611.18
-2609.74
-2602.55
-2586.79
-2594.76
-2596.94
-2598.97
-2602
-2603.23
-2612.84
-2611.51
-2609.01
-2605.98
-2603.24
-2576.8
-2583.98
-2586.81
-2589.17
-2591.53
-2605.9
-2603.62
-2601.03
-2598.08
-2594.55
-2572.14
-2584.14
-2586.3
-2588.22
-2590.93
-2611.25
-2609.39
-2607.02
-2604.68
-2599.05
-2588.32
-2597.79
-2600.94
-2604.48
-2607.7
-2625.38
-2625.86
-2624.88
-2622.13
-2615.04
-2615.93
-2620.07
-2622.72
-2625.26
-2627.6
-2620.59
-2618.67
-2616.4
-2614.26
-2606.1
-2603.72
-2610.55
-2613.28
-2616.38
-2619.05
-2620.49
-2618.79
-2616.42
-2613.97
-2608.31
-2607.82
-2612
-2614.8
-2617.79
-2620.36
-2624.09
-2622.26
-2619.97
-2617.33
-2609.88
-2612.38
-2618.66
-2620.76
-2622.86
-2624.41
-2631.02
-2629.1
-2627.21
-2625.21
-2618.71
-2628.36
-2629.96
-2630.96
-2631.86
-2632.5
-2643.29
-2640.43
-2632.57
-2635.57
-2637.51
-2584.44
-2636.84
-2648.68
-2648.69
-2648.56
-2664.04
-2661.37
-2652.89
-2581.42
-2568.33
-2636.39
-2653.73
-2671.73
-2672.13
-2672.11
-2692.84
-2691.88
-2690.62
-2689.2
-2687.58
-2694.69
-2666.78
-2618.6
-2585.75
-2575.19
-2376.68
-2364.32
-2392.92
-2404.72
-2411.69
-2237.22
-2237.73
-2236.26
-2235.11
-2237.33
-2240.12
-2240.25
-2240.29
-2240.24
-2240.23
-2242.65
-2242.65
-2242.77
-2242.74
-2242.83
-2243.45
-2243.47
-2243.44
-2243.39
-2243.33
-2243.66
-2243.79
-2243.85
-2243.87
-2243.84
-2244
-2244.04
-2244.04
-2243.99
-2243.83
-2244.01
-2244.2
-2244.23
-2244.25
-2244.23
-2244.13
-2244.32
-2244.3
-2244.11
-2243.79
-2243.88
-2244.16
-2244.42
-2244.42
-2244.42
-2244.62
-2244.56
-2244.59
-2244.58
-2244.4
-2244.7
-2244.74
-2244.77
-2244.58
-2244.7
-2244.85
-2244.81
-2244.75
-2244.68
-2244.57
-2244.75
-2244.81
-2244.9
-2244.95
-2245
-2245.14
-2245.11
-2245.06
-2244.92
-2244.8
-2245
-2245.1
-2245.23
-2245.26
-2245.29
-2245.38
-2245.15
-2245.04
-2245.27
-2245.3
-2245.5
-2245.22
-2245.11
-2245.12
-2245.38
-2245.08
-2245.14
-2245.2
-2245.5
-2245.52
-2244.25
-2242.17
-2242.8
-2244.47
-2245.04
-2244.37
-2242.33
-2244.84
-2245.74
-2245.75
-2241.14
-2241
-2241.01
-2241.28
-2243.5
-2245.65
-2244.93
-2241.97
-2240.66
-2240.56
-2245.28
-2245.54
-2245.55
-2245.57
-2245.59
-2241.12
-2239.49
-2239.7
-2243.33
-2243.75
-2239.36
-2239.34
-2239.36
-2239.41
-2239.49
-2241.57
-2239.49
-2239.52
-2241.96
-2239.48
-2241.24
-2242.75
-2243.31
-2242.85
-2244.08
-2245.48
-2245.33
-2244.45
-2243.55
-2245.51
-2245.41
-2245.18
-2244.73
-2244.49
-2244.88
-2245.39
-2245.13
-2244.9
-2245.21
-2245.39
-2245.35
-2245.34
-2245.36
-2245.36
-2245.36
-2245.34
-2245.34
-2245.34
-2245.34
-2245.33
-2245.37
-2245.37
-2245.38
-2245.39
-2245.39
-2245.18
-2245.36
-2245.46
-2245.46
-2245.45
-2245.3
-2245.53
-2245.54
-2245.53
-2244.92
-2245.03
-2245.35
-2245.16
-2244.74
-2243.72
-2243.59
-2243.6
-2243.71
-2245.36
-2245.08
-2243.21
-2243.43
-2244.09
-2244.06
-2244.15
-2245.08
-2245.1
-2245.24
-2245.43
-2245.57
-2094.91
-2094.22
-2098.48
-2102.74
-2107.28
-2171.66
-2169.45
-2163.88
-2150.32
-2151.25
-2177.37
-2170.55
-2190.13
-2244.19
-2271.6
-2344.42
-2271.24
-2171.25
-2111.25
-2107.25
-2149.61
-2319.04
-2411.67
-2310.4
-2305.43
-2200.08
-2332.56
-2485.38
-2490.92
-2453.2
-2517.6
-2513.09
-2508.99
-2415.93
-2159.16
-2155.49
-2512.17
-2518.51
-2521.35
-2525.88
-2487.58
-2497.27
-2517.02
-2517.69
-2300.21
-2348.68
-2518.77
-2517.58
-2467.89
-2443.03
-2453.63
-2480.4
-2521
-2520
-2347.89
-2343.32
-2524.9
-2503.7
-2520.68
-2532.59
-2545.86
-2487.85
-2439.63
-2530.39
-2524.95
-2489.54
-2466.3
-2504.08
-2548.25
-2555.35
-2566.26
-2539.92
-2458.61
-2454.01
-2483.7
-2447.52
-2446.4
-2445.73
-2463
-2537.73
-2464.27
-2459.64
-2459.94
-2460.87
-2462.31
-2476.48
-2485.42
-2475.99
-2474.24
-2472.73
-2487.29
-2494.17
-2538.56
-2576.35
-2497.13
-2477.94
-2526.73
-2591.79
-2598.27
-2605.95
-2544.28
-2563.77
-2572.13
-2517.14
-2490.74
-2504.84
-2499.83
-2329.55
-2178.89
-2343.45
-2553.55
-2491.75
-2603.15
-2615.99
-2606.15
-2589.12
-2554.22
-2427.6
-2191.03
-2423.58
-2622.55
-2621.35
-2619.23
-2608.73
-2612.44
-2422.69
-2426.52
-2612.03
-2615.68
-2620.69
-2622.63
-2620.56
-2618.08
-2613.42
-2612.05
-2599.05
-2541.86
-2563.52
-2569.48
-2567.51
-2607.82
-2611.71
-2630.59
-2628.74
-2619.06
-2556.2
-2630.9
-2635.7
-2551.95
-2467.74
-2474.75
-2591.91
-2650.8
-2649.39
-2633.47
-2645.49
-2647.52
-2649.34
-2639.2
-2619.51
-2648.91
-2646.52
-2645.24
-2643.4
-2641.34
-2636.01
-2638.3
-2640.72
-2643.32
-2642.61
-2650.45
-2648.8
-2646.25
-2643.73
-2640.34
-2637.65
-2641.02
-2643.91
-2646.93
-2649.39
-2656.91
-2654.81
-2652.15
-2649.31
-2643.39
-2646.68
-2651.31
-2653.8
-2656.25
-2657.93
-2668.82
-2666.5
-2664.03
-2661.49
-2655.95
-2666.41
-2668.53
-2670.01
-2671.31
-2672.13
-2688.46
-2684.5
-2680.71
-2682
-2680.16
-2693.84
-2692.14
-2696.77
-2697.08
-2696.99
-2720.88
-2717.52
-2711.99
-2655.62
-2624.44
-2680.64
-2705.38
-2732.86
-2733.09
-2732.66
-2762.4
-2762.06
-2761.23
-2760.1
-2758.06
-2727.26
-2703.67
-2644.58
-2591.75
-2573.75
-2329.33
-2337.96
-2363.84
-2370.06
-2372.86
-2238.37
-2238.49
-2238.3
-2238.29
-2238.52
-2240.93
-2240.95
-2240.91
-2240.87
-2240.82
-2242.63
-2242.46
-2242.59
-2242.69
-2242.76
-2243.41
-2243.3
-2243.16
-2243.21
-2243.25
-2243.58
-2243.68
-2243.38
-2243.61
-2243.77
-2243.94
-2243.57
-2243.51
-2243.91
-2243.8
-2243.71
-2244.02
-2244.07
-2244.19
-2244.17
-2244.24
-2244.25
-2244.27
-2243.89
-2243.6
-2243.91
-2244.18
-2244.29
-2244.26
-2244.28
-2244.08
-2244.2
-2244.5
-2244.57
-2244.34
-2244.54
-2244.62
-2244.55
-2244.46
-2244.45
-2244.65
-2244.52
-2244.55
-2244.65
-2244.59
-2244.7
-2244.8
-2244.82
-2244.75
-2244.7
-2245.02
-2244.98
-2244.93
-2244.75
-2244.66
-2244.68
-2244.88
-2244.96
-2245.02
-2245.04
-2245.17
-2245.15
-2245.11
-2245
-2244.84
-2245.03
-2245.08
-2245.26
-2245.28
-2245.3
-2245.39
-2245.36
-2245.04
-2245.18
-2245.31
-2245.33
-2245.31
-2245.14
-2245.24
-2245.34
-2245.28
-2245.48
-2245.49
-2245.52
-2245.52
-2245.53
-2245.54
-2245.54
-2245.5
-2245.47
-2245.61
-2245.47
-2245.45
-2245.69
-2245.33
-2245.22
-2245.69
-2245.69
-2245.69
-2245.68
-2245.72
-2245.63
-2244.65
-2242.81
-2240.19
-2239.22
-2239.28
-2240.59
-2244.84
-2245.69
-2240.71
-2239.22
-2239.17
-2239.18
-2239.18
-2241.2
-2244.46
-2245.17
-2245.08
-2245.43
-2245.54
-2245.57
-2245.84
-2245.81
-2244.8
-2244.67
-2245.72
-2245.75
-2245.56
-2245.55
-2245.46
-2245.57
-2245.59
-2244.6
-2242.73
-2242.65
-2242.67
-2244.44
-2245.47
-2245.47
-2245.42
-2245.17
-2244.18
-2245
-2245.41
-2245.35
-2245.02
-2244.09
-2245.1
-2245.35
-2245.15
-2244.18
-2244.46
-2245.07
-2245.31
-2245.3
-2245.3
-2245.14
-2244.65
-2244.65
-2245.16
-2245.38
-2245.38
-2245.38
-2245.37
-2245.41
-2245.41
-2245.42
-2245.42
-2245.4
-2244.16
-2244.26
-2244.76
-2244.57
-2242.97
-2242.55
-2243.98
-2244.5
-2244.73
-2244.83
-2244.94
-2244.96
-2243.53
-2242.83
-2242.8
-2243.21
-2243.2
-2243.2
-2244.41
-2244.44
-2242.9
-2243.46
-2243.73
-2243.87
-2243.68
-2244.58
-2244.64
-2244.77
-2244.94
-2245.05
-2133.43
-2132.48
-2137.39
-2142.88
-2147.09
-2197.45
-2194.21
-2189.69
-2177.29
-2174.35
-2194.12
-2195.44
-2227.08
-2272.48
-2305.59
-2387.59
-2278.78
-2171.6
-2140.02
-2141.82
-2122.6
-2216.93
-2401.03
-2371.44
-2447.04
-2299.78
-2459.13
-2515.91
-2469.64
-2395.32
-2538.25
-2533.64
-2529.01
-2480
-2183.43
-2149.87
-2523.27
-2533.75
-2537.47
-2540.75
-2520.16
-2531.88
-2535.64
-2532.06
-2202.7
-2229.81
-2535.47
-2538.9
-2514.18
-2462.49
-2471.38
-2508.13
-2542.07
-2540.37
-2214.67
-2212.87
-2521.03
-2499.39
-2479.34
-2481.66
-2426.88
-2426.64
-2426.58
-2490.74
-2545.61
-2553.17
-2556.12
-2533.13
-2440.48
-2474.52
-2586.07
-2586.79
-2580.5
-2575.02
-2587.06
-2597.86
-2598.03
-2598
-2597.78
-2587.92
-2557.73
-2501.02
-2467.91
-2552.96
-2578.25
-2598.91
-2600.35
-2591.16
-2495.77
-2536.85
-2552.16
-2597.96
-2611.69
-2612.9
-2613.84
-2627.37
-2626.55
-2623.1
-2621.02
-2621.05
-2584.01
-2561.16
-2600.69
-2587.15
-2546.63
-2570.17
-2576.5
-2592.5
-2633.88
-2490.89
-2330.07
-2566.52
-2578.59
-2634.08
-2643.6
-2548.76
-2490.82
-2187.42
-2187.95
-2206.35
-2265.36
-2197.03
-2233.14
-2472.27
-2559.34
-2510.59
-2304.59
-2199.5
-2200.58
-2438.33
-2653.74
-2394.91
-2211.4
-2227.72
-2463.26
-2287.3
-2227.79
-2322.12
-2601.79
-2613.98
-2618.69
-2555.41
-2276.57
-2248.01
-2249.03
-2428.77
-2402.98
-2380.8
-2378.5
-2379.42
-2397.97
-2462.67
-2615.61
-2624.23
-2492.23
-2497.63
-2498.32
-2576.33
-2617.3
-2386.59
-2363.34
-2361.48
-2606.08
-2583.89
-2501.78
-2592.31
-2629.56
-2670.6
-2626.32
-2464.97
-2657.75
-2673.27
-2672.3
-2669.12
-2670.38
-2665.25
-2666.27
-2667.51
-2667.77
-2650.32
-2679.82
-2678.64
-2676.42
-2674.12